s 0.475592155 _4_ RTR  --- 0 message 32 [0 0 0 0] ------- [4:255 -1:255 32 0] 
s 0.475907155 _4_ MAC  --- 0 message 90 [0 ffffffff 4 800] ------- [4:255 -1:255 32 0] 
r 0.476627834 _0_ MAC  --- 0 message 32 [0 ffffffff 4 800] ------- [4:255 -1:255 32 0] 
r 0.476652834 _0_ RTR  --- 0 message 32 [0 ffffffff 4 800] ------- [4:255 -1:255 32 0] 
s 0.626351489 _2_ RTR  --- 1 message 32 [0 0 0 0] ------- [2:255 -1:255 32 0] 
s 0.626786489 _2_ MAC  --- 1 message 90 [0 ffffffff 2 800] ------- [2:255 -1:255 32 0] 
r 0.627507227 _0_ MAC  --- 1 message 32 [0 ffffffff 2 800] ------- [2:255 -1:255 32 0] 
r 0.627532227 _0_ RTR  --- 1 message 32 [0 ffffffff 2 800] ------- [2:255 -1:255 32 0] 
s 0.886583331 _0_ RTR  --- 2 message 32 [0 0 0 0] ------- [0:255 -1:255 32 0] 
s 0.886998331 _0_ MAC  --- 2 message 90 [0 ffffffff 0 800] ------- [0:255 -1:255 32 0] 
r 0.887718954 _1_ MAC  --- 2 message 32 [0 ffffffff 0 800] ------- [0:255 -1:255 32 0] 
r 0.887719010 _4_ MAC  --- 2 message 32 [0 ffffffff 0 800] ------- [0:255 -1:255 32 0] 
r 0.887719054 _3_ MAC  --- 2 message 32 [0 ffffffff 0 800] ------- [0:255 -1:255 32 0] 
r 0.887719070 _2_ MAC  --- 2 message 32 [0 ffffffff 0 800] ------- [0:255 -1:255 32 0] 
r 0.887743954 _1_ RTR  --- 2 message 32 [0 ffffffff 0 800] ------- [0:255 -1:255 32 0] 
r 0.887744010 _4_ RTR  --- 2 message 32 [0 ffffffff 0 800] ------- [0:255 -1:255 32 0] 
r 0.887744054 _3_ RTR  --- 2 message 32 [0 ffffffff 0 800] ------- [0:255 -1:255 32 0] 
r 0.887744070 _2_ RTR  --- 2 message 32 [0 ffffffff 0 800] ------- [0:255 -1:255 32 0] 
s 1.000000000 _1_ AGT  --- 3 tcp 40 [0 0 0 0] ------- [1:0 0:0 32 0] [0 0] 0 0
r 1.000000000 _1_ RTR  --- 3 tcp 40 [0 0 0 0] ------- [1:0 0:0 32 0] [0 0] 0 0
s 1.000000000 _1_ RTR  --- 3 tcp 60 [0 0 0 0] ------- [1:0 0:0 32 0] [0 0] 0 0
s 1.000000000 _2_ AGT  --- 4 tcp 40 [0 0 0 0] ------- [2:0 0:1 32 0] [0 0] 0 0
r 1.000000000 _2_ RTR  --- 4 tcp 40 [0 0 0 0] ------- [2:0 0:1 32 0] [0 0] 0 0
s 1.000000000 _2_ RTR  --- 4 tcp 60 [0 0 0 0] ------- [2:0 0:1 32 0] [0 0] 0 0
s 1.000000000 _3_ AGT  --- 5 tcp 40 [0 0 0 0] ------- [3:0 0:2 32 0] [0 0] 0 0
r 1.000000000 _3_ RTR  --- 5 tcp 40 [0 0 0 0] ------- [3:0 0:2 32 0] [0 0] 0 0
s 1.000000000 _3_ RTR  --- 5 tcp 60 [0 0 0 0] ------- [3:0 0:2 32 0] [0 0] 0 0
s 1.000000000 _4_ AGT  --- 6 tcp 40 [0 0 0 0] ------- [4:0 0:3 32 0] [0 0] 0 0
r 1.000000000 _4_ RTR  --- 6 tcp 40 [0 0 0 0] ------- [4:0 0:3 32 0] [0 0] 0 0
s 1.000000000 _4_ RTR  --- 6 tcp 60 [0 0 0 0] ------- [4:0 0:3 32 0] [0 0] 0 0
s 1.000075000 _3_ MAC  --- 0 ARP 86 [0 ffffffff 3 806] ------- [REQUEST 3/3 0/0]
r 1.000763722 _0_ MAC  --- 0 ARP 28 [0 ffffffff 3 806] ------- [REQUEST 3/3 0/0]
s 1.000998722 _0_ MAC  --- 0 RTS 44 [52e 3 0 0] 
r 1.001351445 _3_ MAC  --- 0 RTS 44 [52e 3 0 0] 
s 1.001361445 _3_ MAC  --- 0 CTS 38 [3f4 0 0 0] 
r 1.001666167 _0_ MAC  --- 0 CTS 38 [3f4 0 0 0] 
s 1.001676167 _0_ MAC  --- 0 ARP 86 [13a 3 0 806] ------- [REPLY 0/0 3/3]
r 1.002364889 _3_ MAC  --- 0 ARP 28 [13a 3 0 806] ------- [REPLY 0/0 3/3]
s 1.002374889 _3_ MAC  --- 0 ACK 38 [0 0 0 0] 
r 1.002679612 _0_ MAC  --- 0 ACK 38 [0 0 0 0] 
s 1.002988889 _3_ MAC  --- 0 RTS 44 [62e 0 3 0] 
r 1.003341612 _0_ MAC  --- 0 RTS 44 [62e 0 3 0] 
s 1.003351612 _0_ MAC  --- 0 CTS 38 [4f4 3 0 0] 
r 1.003656334 _3_ MAC  --- 0 CTS 38 [4f4 3 0 0] 
s 1.003666334 _3_ MAC  --- 5 tcp 118 [13a 0 3 800] ------- [3:0 0:2 32 0] [0 0] 0 0
r 1.004611057 _0_ MAC  --- 5 tcp 60 [13a 0 3 800] ------- [3:0 0:2 32 0] [0 0] 1 0
s 1.004621057 _0_ MAC  --- 0 ACK 38 [0 3 0 0] 
r 1.004636057 _0_ AGT  --- 5 tcp 60 [13a 0 3 800] ------- [3:0 0:2 32 0] [0 0] 1 0
s 1.004636057 _0_ AGT  --- 7 ack 40 [0 0 0 0] ------- [0:2 3:0 32 0] [0 0] 0 0
r 1.004636057 _0_ RTR  --- 7 ack 40 [0 0 0 0] ------- [0:2 3:0 32 0] [0 0] 0 0
r 1.004925779 _3_ MAC  --- 0 ACK 38 [0 3 0 0] 
s 1.005205669 _1_ MAC  --- 0 ARP 86 [0 ffffffff 1 806] ------- [REQUEST 1/1 0/0]
r 1.005894292 _0_ MAC  --- 0 ARP 28 [0 ffffffff 1 806] ------- [REQUEST 1/1 0/0]
s 1.006064292 _0_ MAC  --- 0 RTS 44 [52e 1 0 0] 
r 1.006416915 _1_ MAC  --- 0 RTS 44 [52e 1 0 0] 
s 1.006426915 _1_ MAC  --- 0 CTS 38 [3f4 0 0 0] 
r 1.006731537 _0_ MAC  --- 0 CTS 38 [3f4 0 0 0] 
s 1.006741537 _0_ MAC  --- 0 ARP 86 [13a 1 0 806] ------- [REPLY 0/0 1/1]
r 1.007430160 _1_ MAC  --- 0 ARP 28 [13a 1 0 806] ------- [REPLY 0/0 1/1]
s 1.007440160 _1_ MAC  --- 0 ACK 38 [0 0 0 0] 
r 1.007744783 _0_ MAC  --- 0 ACK 38 [0 0 0 0] 
s 1.008179077 _2_ MAC  --- 0 ARP 86 [0 ffffffff 2 806] ------- [REQUEST 2/2 0/0]
r 1.008867815 _0_ MAC  --- 0 ARP 28 [0 ffffffff 2 806] ------- [REQUEST 2/2 0/0]
s 1.009222815 _0_ MAC  --- 0 RTS 44 [52e 2 0 0] 
r 1.009575553 _2_ MAC  --- 0 RTS 44 [52e 2 0 0] 
s 1.009585553 _2_ MAC  --- 0 CTS 38 [3f4 0 0 0] 
r 1.009890291 _0_ MAC  --- 0 CTS 38 [3f4 0 0 0] 
s 1.009900291 _0_ MAC  --- 0 ARP 86 [13a 2 0 806] ------- [REPLY 0/0 2/2]
r 1.010589030 _2_ MAC  --- 0 ARP 28 [13a 2 0 806] ------- [REPLY 0/0 2/2]
s 1.010599030 _2_ MAC  --- 0 ACK 38 [0 0 0 0] 
r 1.010903768 _0_ MAC  --- 0 ACK 38 [0 0 0 0] 
s 1.011313030 _2_ MAC  --- 0 RTS 44 [62e 0 2 0] 
r 1.011665768 _0_ MAC  --- 0 RTS 44 [62e 0 2 0] 
s 1.011675768 _0_ MAC  --- 0 CTS 38 [4f4 2 0 0] 
r 1.011980506 _2_ MAC  --- 0 CTS 38 [4f4 2 0 0] 
s 1.011990506 _2_ MAC  --- 4 tcp 118 [13a 0 2 800] ------- [2:0 0:1 32 0] [0 0] 0 0
r 1.012935244 _0_ MAC  --- 4 tcp 60 [13a 0 2 800] ------- [2:0 0:1 32 0] [0 0] 1 0
s 1.012945244 _0_ MAC  --- 0 ACK 38 [0 2 0 0] 
r 1.012960244 _0_ AGT  --- 4 tcp 60 [13a 0 2 800] ------- [2:0 0:1 32 0] [0 0] 1 0
s 1.012960244 _0_ AGT  --- 8 ack 40 [0 0 0 0] ------- [0:1 2:0 32 0] [0 0] 0 0
r 1.012960244 _0_ RTR  --- 8 ack 40 [0 0 0 0] ------- [0:1 2:0 32 0] [0 0] 0 0
s 1.012960244 _0_ RTR  --- 8 ack 60 [0 0 0 0] ------- [0:1 2:0 32 2] [0 0] 0 0
r 1.013249982 _2_ MAC  --- 0 ACK 38 [0 2 0 0] 
s 1.013369920 _4_ MAC  --- 0 ARP 86 [0 ffffffff 4 806] ------- [REQUEST 4/4 0/0]
r 1.014058599 _0_ MAC  --- 0 ARP 28 [0 ffffffff 4 806] ------- [REQUEST 4/4 0/0]
s 1.014128599 _0_ MAC  --- 0 RTS 44 [62e 2 0 0] 
r 1.014481337 _2_ MAC  --- 0 RTS 44 [62e 2 0 0] 
s 1.014491337 _2_ MAC  --- 0 CTS 38 [4f4 0 0 0] 
r 1.014796075 _0_ MAC  --- 0 CTS 38 [4f4 0 0 0] 
s 1.014806075 _0_ MAC  --- 8 ack 118 [13a 2 0 800] ------- [0:1 2:0 32 2] [0 0] 0 0
r 1.015750814 _2_ MAC  --- 8 ack 60 [13a 2 0 800] ------- [0:1 2:0 32 2] [0 0] 1 0
s 1.015760814 _2_ MAC  --- 0 ACK 38 [0 0 0 0] 
r 1.015775814 _2_ AGT  --- 8 ack 60 [13a 2 0 800] ------- [0:1 2:0 32 2] [0 0] 1 0
s 1.015775814 _2_ AGT  --- 9 tcp 1540 [0 0 0 0] ------- [2:0 0:1 32 0] [1 0] 0 0
r 1.015775814 _2_ RTR  --- 9 tcp 1540 [0 0 0 0] ------- [2:0 0:1 32 0] [1 0] 0 0
s 1.015775814 _2_ RTR  --- 9 tcp 1560 [0 0 0 0] ------- [2:0 0:1 32 0] [1 0] 0 0
s 1.015775814 _2_ AGT  --- 10 tcp 1540 [0 0 0 0] ------- [2:0 0:1 32 0] [2 0] 0 0
r 1.015775814 _2_ RTR  --- 10 tcp 1540 [0 0 0 0] ------- [2:0 0:1 32 0] [2 0] 0 0
s 1.015775814 _2_ RTR  --- 10 tcp 1560 [0 0 0 0] ------- [2:0 0:1 32 0] [2 0] 0 0
r 1.016065552 _0_ MAC  --- 0 ACK 38 [0 0 0 0] 
s 1.016215552 _0_ MAC  --- 0 RTS 44 [52e 4 0 0] 
r 1.016568230 _4_ MAC  --- 0 RTS 44 [52e 4 0 0] 
s 1.016578230 _4_ MAC  --- 0 CTS 38 [3f4 0 0 0] 
r 1.016882909 _0_ MAC  --- 0 CTS 38 [3f4 0 0 0] 
s 1.016892909 _0_ MAC  --- 0 ARP 86 [13a 4 0 806] ------- [REPLY 0/0 4/4]
r 1.017581588 _4_ MAC  --- 0 ARP 28 [13a 4 0 806] ------- [REPLY 0/0 4/4]
s 1.017591588 _4_ MAC  --- 0 ACK 38 [0 0 0 0] 
r 1.017896267 _0_ MAC  --- 0 ACK 38 [0 0 0 0] 
s 1.018125588 _4_ MAC  --- 0 RTS 44 [62e 0 4 0] 
r 1.018478267 _0_ MAC  --- 0 RTS 44 [62e 0 4 0] 
s 1.018488267 _0_ MAC  --- 0 CTS 38 [4f4 4 0 0] 
r 1.018792946 _4_ MAC  --- 0 CTS 38 [4f4 4 0 0] 
s 1.018802946 _4_ MAC  --- 6 tcp 118 [13a 0 4 800] ------- [4:0 0:3 32 0] [0 0] 0 0
r 1.019747625 _0_ MAC  --- 6 tcp 60 [13a 0 4 800] ------- [4:0 0:3 32 0] [0 0] 1 0
s 1.019757625 _0_ MAC  --- 0 ACK 38 [0 4 0 0] 
r 1.019772625 _0_ AGT  --- 6 tcp 60 [13a 0 4 800] ------- [4:0 0:3 32 0] [0 0] 1 0
s 1.019772625 _0_ AGT  --- 11 ack 40 [0 0 0 0] ------- [0:3 4:0 32 0] [0 0] 0 0
r 1.019772625 _0_ RTR  --- 11 ack 40 [0 0 0 0] ------- [0:3 4:0 32 0] [0 0] 0 0
s 1.019772625 _0_ RTR  --- 11 ack 60 [0 0 0 0] ------- [0:3 4:0 32 4] [0 0] 0 0
r 1.020062304 _4_ MAC  --- 0 ACK 38 [0 4 0 0] 
s 1.020181959 _1_ MAC  --- 0 RTS 44 [62e 0 1 0] 
r 1.020534581 _0_ MAC  --- 0 RTS 44 [62e 0 1 0] 
s 1.020544581 _0_ MAC  --- 0 CTS 38 [4f4 1 0 0] 
r 1.020849204 _1_ MAC  --- 0 CTS 38 [4f4 1 0 0] 
s 1.020859204 _1_ MAC  --- 3 tcp 118 [13a 0 1 800] ------- [1:0 0:0 32 0] [0 0] 0 0
r 1.021803827 _0_ MAC  --- 3 tcp 60 [13a 0 1 800] ------- [1:0 0:0 32 0] [0 0] 1 0
s 1.021813827 _0_ MAC  --- 0 ACK 38 [0 1 0 0] 
r 1.021828827 _0_ AGT  --- 3 tcp 60 [13a 0 1 800] ------- [1:0 0:0 32 0] [0 0] 1 0
s 1.021828827 _0_ AGT  --- 12 ack 40 [0 0 0 0] ------- [0:0 1:0 32 0] [0 0] 0 0
r 1.021828827 _0_ RTR  --- 12 ack 40 [0 0 0 0] ------- [0:0 1:0 32 0] [0 0] 0 0
r 1.022118449 _1_ MAC  --- 0 ACK 38 [0 1 0 0] 
s 1.022318121 _2_ MAC  --- 0 RTS 44 [350e 0 2 0] 
r 1.022670859 _0_ MAC  --- 0 RTS 44 [350e 0 2 0] 
s 1.022680859 _0_ MAC  --- 0 CTS 38 [33d4 2 0 0] 
r 1.022985597 _2_ MAC  --- 0 CTS 38 [33d4 2 0 0] 
s 1.022995597 _2_ MAC  --- 9 tcp 1618 [13a 0 2 800] ------- [2:0 0:1 32 0] [1 0] 0 0
r 1.035940335 _0_ MAC  --- 9 tcp 1560 [13a 0 2 800] ------- [2:0 0:1 32 0] [1 0] 1 0
s 1.035950335 _0_ MAC  --- 0 ACK 38 [0 2 0 0] 
r 1.035965335 _0_ AGT  --- 9 tcp 1560 [13a 0 2 800] ------- [2:0 0:1 32 0] [1 0] 1 0
s 1.035965335 _0_ AGT  --- 13 ack 40 [0 0 0 0] ------- [0:1 2:0 32 0] [1 0] 0 0
r 1.035965335 _0_ RTR  --- 13 ack 40 [0 0 0 0] ------- [0:1 2:0 32 0] [1 0] 0 0
s 1.035965335 _0_ RTR  --- 13 ack 60 [0 0 0 0] ------- [0:1 2:0 32 2] [1 0] 0 0
r 1.036255074 _2_ MAC  --- 0 ACK 38 [0 2 0 0] 
s 1.036464335 _0_ MAC  --- 0 RTS 44 [62e 4 0 0] 
r 1.036817014 _4_ MAC  --- 0 RTS 44 [62e 4 0 0] 
s 1.036827014 _4_ MAC  --- 0 CTS 38 [4f4 0 0 0] 
r 1.037131693 _0_ MAC  --- 0 CTS 38 [4f4 0 0 0] 
s 1.037141693 _0_ MAC  --- 11 ack 118 [13a 4 0 800] ------- [0:3 4:0 32 4] [0 0] 0 0
r 1.038086372 _4_ MAC  --- 11 ack 60 [13a 4 0 800] ------- [0:3 4:0 32 4] [0 0] 1 0
s 1.038096372 _4_ MAC  --- 0 ACK 38 [0 0 0 0] 
r 1.038111372 _4_ AGT  --- 11 ack 60 [13a 4 0 800] ------- [0:3 4:0 32 4] [0 0] 1 0
s 1.038111372 _4_ AGT  --- 14 tcp 1540 [0 0 0 0] ------- [4:0 0:3 32 0] [1 0] 0 0
r 1.038111372 _4_ RTR  --- 14 tcp 1540 [0 0 0 0] ------- [4:0 0:3 32 0] [1 0] 0 0
s 1.038111372 _4_ RTR  --- 14 tcp 1560 [0 0 0 0] ------- [4:0 0:3 32 0] [1 0] 0 0
s 1.038111372 _4_ AGT  --- 15 tcp 1540 [0 0 0 0] ------- [4:0 0:3 32 0] [2 0] 0 0
r 1.038111372 _4_ RTR  --- 15 tcp 1540 [0 0 0 0] ------- [4:0 0:3 32 0] [2 0] 0 0
s 1.038111372 _4_ RTR  --- 15 tcp 1560 [0 0 0 0] ------- [4:0 0:3 32 0] [2 0] 0 0
r 1.038401051 _0_ MAC  --- 0 ACK 38 [0 0 0 0] 
s 1.038510372 _4_ MAC  --- 0 RTS 44 [350e 0 4 0] 
r 1.038863051 _0_ MAC  --- 0 RTS 44 [350e 0 4 0] 
s 1.038873051 _0_ MAC  --- 0 CTS 38 [33d4 4 0 0] 
r 1.039177730 _4_ MAC  --- 0 CTS 38 [33d4 4 0 0] 
s 1.039187730 _4_ MAC  --- 14 tcp 1618 [13a 0 4 800] ------- [4:0 0:3 32 0] [1 0] 0 0
r 1.052132409 _0_ MAC  --- 14 tcp 1560 [13a 0 4 800] ------- [4:0 0:3 32 0] [1 0] 1 0
s 1.052142409 _0_ MAC  --- 0 ACK 38 [0 4 0 0] 
r 1.052157409 _0_ AGT  --- 14 tcp 1560 [13a 0 4 800] ------- [4:0 0:3 32 0] [1 0] 1 0
s 1.052157409 _0_ AGT  --- 16 ack 40 [0 0 0 0] ------- [0:3 4:0 32 0] [1 0] 0 0
r 1.052157409 _0_ RTR  --- 16 ack 40 [0 0 0 0] ------- [0:3 4:0 32 0] [1 0] 0 0
s 1.052157409 _0_ RTR  --- 16 ack 60 [0 0 0 0] ------- [0:3 4:0 32 4] [1 0] 0 0
r 1.052447088 _4_ MAC  --- 0 ACK 38 [0 4 0 0] 
s 1.052576409 _0_ MAC  --- 0 RTS 44 [62e 2 0 0] 
r 1.052929147 _2_ MAC  --- 0 RTS 44 [62e 2 0 0] 
s 1.052939147 _2_ MAC  --- 0 CTS 38 [4f4 0 0 0] 
r 1.053243885 _0_ MAC  --- 0 CTS 38 [4f4 0 0 0] 
s 1.053253885 _0_ MAC  --- 13 ack 118 [13a 2 0 800] ------- [0:1 2:0 32 2] [1 0] 0 0
r 1.054198623 _2_ MAC  --- 13 ack 60 [13a 2 0 800] ------- [0:1 2:0 32 2] [1 0] 1 0
s 1.054208623 _2_ MAC  --- 0 ACK 38 [0 0 0 0] 
r 1.054223623 _2_ AGT  --- 13 ack 60 [13a 2 0 800] ------- [0:1 2:0 32 2] [1 0] 1 0
s 1.054223623 _2_ AGT  --- 17 tcp 1540 [0 0 0 0] ------- [2:0 0:1 32 0] [3 0] 0 0
r 1.054223623 _2_ RTR  --- 17 tcp 1540 [0 0 0 0] ------- [2:0 0:1 32 0] [3 0] 0 0
s 1.054223623 _2_ RTR  --- 17 tcp 1560 [0 0 0 0] ------- [2:0 0:1 32 0] [3 0] 0 0
s 1.054223623 _2_ AGT  --- 18 tcp 1540 [0 0 0 0] ------- [2:0 0:1 32 0] [4 0] 0 0
r 1.054223623 _2_ RTR  --- 18 tcp 1540 [0 0 0 0] ------- [2:0 0:1 32 0] [4 0] 0 0
s 1.054223623 _2_ RTR  --- 18 tcp 1560 [0 0 0 0] ------- [2:0 0:1 32 0] [4 0] 0 0
r 1.054513361 _0_ MAC  --- 0 ACK 38 [0 0 0 0] 
s 1.054982623 _2_ MAC  --- 0 RTS 44 [350e 0 2 0] 
r 1.055335361 _0_ MAC  --- 0 RTS 44 [350e 0 2 0] 
s 1.055345361 _0_ MAC  --- 0 CTS 38 [33d4 2 0 0] 
r 1.055650099 _2_ MAC  --- 0 CTS 38 [33d4 2 0 0] 
s 1.055660099 _2_ MAC  --- 10 tcp 1618 [13a 0 2 800] ------- [2:0 0:1 32 0] [2 0] 0 0
r 1.068604837 _0_ MAC  --- 10 tcp 1560 [13a 0 2 800] ------- [2:0 0:1 32 0] [2 0] 1 0
s 1.068614837 _0_ MAC  --- 0 ACK 38 [0 2 0 0] 
r 1.068629837 _0_ AGT  --- 10 tcp 1560 [13a 0 2 800] ------- [2:0 0:1 32 0] [2 0] 1 0
s 1.068629837 _0_ AGT  --- 19 ack 40 [0 0 0 0] ------- [0:1 2:0 32 0] [2 0] 0 0
r 1.068629837 _0_ RTR  --- 19 ack 40 [0 0 0 0] ------- [0:1 2:0 32 0] [2 0] 0 0
s 1.068629837 _0_ RTR  --- 19 ack 60 [0 0 0 0] ------- [0:1 2:0 32 2] [2 0] 0 0
r 1.068919575 _2_ MAC  --- 0 ACK 38 [0 2 0 0] 
s 1.069068837 _0_ MAC  --- 0 RTS 44 [62e 4 0 0] 
r 1.069421516 _4_ MAC  --- 0 RTS 44 [62e 4 0 0] 
s 1.069431516 _4_ MAC  --- 0 CTS 38 [4f4 0 0 0] 
r 1.069736195 _0_ MAC  --- 0 CTS 38 [4f4 0 0 0] 
s 1.069746195 _0_ MAC  --- 16 ack 118 [13a 4 0 800] ------- [0:3 4:0 32 4] [1 0] 0 0
r 1.070690874 _4_ MAC  --- 16 ack 60 [13a 4 0 800] ------- [0:3 4:0 32 4] [1 0] 1 0
s 1.070700874 _4_ MAC  --- 0 ACK 38 [0 0 0 0] 
r 1.070715874 _4_ AGT  --- 16 ack 60 [13a 4 0 800] ------- [0:3 4:0 32 4] [1 0] 1 0
s 1.070715874 _4_ AGT  --- 20 tcp 1540 [0 0 0 0] ------- [4:0 0:3 32 0] [3 0] 0 0
r 1.070715874 _4_ RTR  --- 20 tcp 1540 [0 0 0 0] ------- [4:0 0:3 32 0] [3 0] 0 0
s 1.070715874 _4_ RTR  --- 20 tcp 1560 [0 0 0 0] ------- [4:0 0:3 32 0] [3 0] 0 0
s 1.070715874 _4_ AGT  --- 21 tcp 1540 [0 0 0 0] ------- [4:0 0:3 32 0] [4 0] 0 0
r 1.070715874 _4_ RTR  --- 21 tcp 1540 [0 0 0 0] ------- [4:0 0:3 32 0] [4 0] 0 0
s 1.070715874 _4_ RTR  --- 21 tcp 1560 [0 0 0 0] ------- [4:0 0:3 32 0] [4 0] 0 0
r 1.071005553 _0_ MAC  --- 0 ACK 38 [0 0 0 0] 
s 1.071235553 _0_ MAC  --- 0 RTS 44 [62e 2 0 0] 
r 1.071588291 _2_ MAC  --- 0 RTS 44 [62e 2 0 0] 
s 1.071598291 _2_ MAC  --- 0 CTS 38 [4f4 0 0 0] 
r 1.071903029 _0_ MAC  --- 0 CTS 38 [4f4 0 0 0] 
s 1.071913029 _0_ MAC  --- 19 ack 118 [13a 2 0 800] ------- [0:1 2:0 32 2] [2 0] 0 0
r 1.072857767 _2_ MAC  --- 19 ack 60 [13a 2 0 800] ------- [0:1 2:0 32 2] [2 0] 1 0
s 1.072867767 _2_ MAC  --- 0 ACK 38 [0 0 0 0] 
r 1.072882767 _2_ AGT  --- 19 ack 60 [13a 2 0 800] ------- [0:1 2:0 32 2] [2 0] 1 0
s 1.072882767 _2_ AGT  --- 22 tcp 1540 [0 0 0 0] ------- [2:0 0:1 32 0] [5 0] 0 0
r 1.072882767 _2_ RTR  --- 22 tcp 1540 [0 0 0 0] ------- [2:0 0:1 32 0] [5 0] 0 0
s 1.072882767 _2_ RTR  --- 22 tcp 1560 [0 0 0 0] ------- [2:0 0:1 32 0] [5 0] 0 0
s 1.072882767 _2_ AGT  --- 23 tcp 1540 [0 0 0 0] ------- [2:0 0:1 32 0] [6 0] 0 0
r 1.072882767 _2_ RTR  --- 23 tcp 1540 [0 0 0 0] ------- [2:0 0:1 32 0] [6 0] 0 0
s 1.072882767 _2_ RTR  --- 23 tcp 1560 [0 0 0 0] ------- [2:0 0:1 32 0] [6 0] 0 0
r 1.073172505 _0_ MAC  --- 0 ACK 38 [0 0 0 0] 
s 1.073421767 _2_ MAC  --- 0 RTS 44 [350e 0 2 0] 
r 1.073774505 _0_ MAC  --- 0 RTS 44 [350e 0 2 0] 
s 1.073784505 _0_ MAC  --- 0 CTS 38 [33d4 2 0 0] 
r 1.074089243 _2_ MAC  --- 0 CTS 38 [33d4 2 0 0] 
s 1.074099243 _2_ MAC  --- 17 tcp 1618 [13a 0 2 800] ------- [2:0 0:1 32 0] [3 0] 0 0
r 1.087043981 _0_ MAC  --- 17 tcp 1560 [13a 0 2 800] ------- [2:0 0:1 32 0] [3 0] 1 0
s 1.087053981 _0_ MAC  --- 0 ACK 38 [0 2 0 0] 
r 1.087068981 _0_ AGT  --- 17 tcp 1560 [13a 0 2 800] ------- [2:0 0:1 32 0] [3 0] 1 0
s 1.087068981 _0_ AGT  --- 24 ack 40 [0 0 0 0] ------- [0:1 2:0 32 0] [3 0] 0 0
r 1.087068981 _0_ RTR  --- 24 ack 40 [0 0 0 0] ------- [0:1 2:0 32 0] [3 0] 0 0
s 1.087068981 _0_ RTR  --- 24 ack 60 [0 0 0 0] ------- [0:1 2:0 32 2] [3 0] 0 0
r 1.087358719 _2_ MAC  --- 0 ACK 38 [0 2 0 0] 
s 1.087478658 _4_ MAC  --- 0 RTS 44 [350e 0 4 0] 
r 1.087831337 _0_ MAC  --- 0 RTS 44 [350e 0 4 0] 
s 1.087841337 _0_ MAC  --- 0 CTS 38 [33d4 4 0 0] 
r 1.088146016 _4_ MAC  --- 0 CTS 38 [33d4 4 0 0] 
s 1.088156016 _4_ MAC  --- 15 tcp 1618 [13a 0 4 800] ------- [4:0 0:3 32 0] [2 0] 0 0
r 1.101100695 _0_ MAC  --- 15 tcp 1560 [13a 0 4 800] ------- [4:0 0:3 32 0] [2 0] 1 0
s 1.101110695 _0_ MAC  --- 0 ACK 38 [0 4 0 0] 
r 1.101125695 _0_ AGT  --- 15 tcp 1560 [13a 0 4 800] ------- [4:0 0:3 32 0] [2 0] 1 0
s 1.101125695 _0_ AGT  --- 25 ack 40 [0 0 0 0] ------- [0:3 4:0 32 0] [2 0] 0 0
r 1.101125695 _0_ RTR  --- 25 ack 40 [0 0 0 0] ------- [0:3 4:0 32 0] [2 0] 0 0
s 1.101125695 _0_ RTR  --- 25 ack 60 [0 0 0 0] ------- [0:3 4:0 32 4] [2 0] 0 0
r 1.101415374 _4_ MAC  --- 0 ACK 38 [0 4 0 0] 
s 1.101465374 _4_ MAC  --- 0 RTS 44 [350e 0 4 0] 
r 1.101818053 _0_ MAC  --- 0 RTS 44 [350e 0 4 0] 
s 1.101828053 _0_ MAC  --- 0 CTS 38 [33d4 4 0 0] 
r 1.102132732 _4_ MAC  --- 0 CTS 38 [33d4 4 0 0] 
s 1.102142732 _4_ MAC  --- 20 tcp 1618 [13a 0 4 800] ------- [4:0 0:3 32 0] [3 0] 0 0
r 1.115087411 _0_ MAC  --- 20 tcp 1560 [13a 0 4 800] ------- [4:0 0:3 32 0] [3 0] 1 0
s 1.115097411 _0_ MAC  --- 0 ACK 38 [0 4 0 0] 
r 1.115112411 _0_ AGT  --- 20 tcp 1560 [13a 0 4 800] ------- [4:0 0:3 32 0] [3 0] 1 0
s 1.115112411 _0_ AGT  --- 26 ack 40 [0 0 0 0] ------- [0:3 4:0 32 0] [3 0] 0 0
r 1.115112411 _0_ RTR  --- 26 ack 40 [0 0 0 0] ------- [0:3 4:0 32 0] [3 0] 0 0
s 1.115112411 _0_ RTR  --- 26 ack 60 [0 0 0 0] ------- [0:3 4:0 32 4] [3 0] 0 0
r 1.115402090 _4_ MAC  --- 0 ACK 38 [0 4 0 0] 
s 1.115491411 _0_ MAC  --- 0 RTS 44 [62e 2 0 0] 
r 1.115844149 _2_ MAC  --- 0 RTS 44 [62e 2 0 0] 
s 1.115854149 _2_ MAC  --- 0 CTS 38 [4f4 0 0 0] 
r 1.116158887 _0_ MAC  --- 0 CTS 38 [4f4 0 0 0] 
s 1.116168887 _0_ MAC  --- 24 ack 118 [13a 2 0 800] ------- [0:1 2:0 32 2] [3 0] 0 0
r 1.117113625 _2_ MAC  --- 24 ack 60 [13a 2 0 800] ------- [0:1 2:0 32 2] [3 0] 1 0
s 1.117123625 _2_ MAC  --- 0 ACK 38 [0 0 0 0] 
r 1.117138625 _2_ AGT  --- 24 ack 60 [13a 2 0 800] ------- [0:1 2:0 32 2] [3 0] 1 0
s 1.117138625 _2_ AGT  --- 27 tcp 1540 [0 0 0 0] ------- [2:0 0:1 32 0] [7 0] 0 0
r 1.117138625 _2_ RTR  --- 27 tcp 1540 [0 0 0 0] ------- [2:0 0:1 32 0] [7 0] 0 0
s 1.117138625 _2_ RTR  --- 27 tcp 1560 [0 0 0 0] ------- [2:0 0:1 32 0] [7 0] 0 0
s 1.117138625 _2_ AGT  --- 28 tcp 1540 [0 0 0 0] ------- [2:0 0:1 32 0] [8 0] 0 0
r 1.117138625 _2_ RTR  --- 28 tcp 1540 [0 0 0 0] ------- [2:0 0:1 32 0] [8 0] 0 0
s 1.117138625 _2_ RTR  --- 28 tcp 1560 [0 0 0 0] ------- [2:0 0:1 32 0] [8 0] 0 0
r 1.117428363 _0_ MAC  --- 0 ACK 38 [0 0 0 0] 
s 1.117798363 _0_ MAC  --- 0 RTS 44 [62e 4 0 0] 
r 1.118151042 _4_ MAC  --- 0 RTS 44 [62e 4 0 0] 
s 1.118161042 _4_ MAC  --- 0 CTS 38 [4f4 0 0 0] 
r 1.118465721 _0_ MAC  --- 0 CTS 38 [4f4 0 0 0] 
s 1.118475721 _0_ MAC  --- 25 ack 118 [13a 4 0 800] ------- [0:3 4:0 32 4] [2 0] 0 0
r 1.119420400 _4_ MAC  --- 25 ack 60 [13a 4 0 800] ------- [0:3 4:0 32 4] [2 0] 1 0
s 1.119430400 _4_ MAC  --- 0 ACK 38 [0 0 0 0] 
r 1.119445400 _4_ AGT  --- 25 ack 60 [13a 4 0 800] ------- [0:3 4:0 32 4] [2 0] 1 0
s 1.119445400 _4_ AGT  --- 29 tcp 1540 [0 0 0 0] ------- [4:0 0:3 32 0] [5 0] 0 0
r 1.119445400 _4_ RTR  --- 29 tcp 1540 [0 0 0 0] ------- [4:0 0:3 32 0] [5 0] 0 0
s 1.119445400 _4_ RTR  --- 29 tcp 1560 [0 0 0 0] ------- [4:0 0:3 32 0] [5 0] 0 0
s 1.119445400 _4_ AGT  --- 30 tcp 1540 [0 0 0 0] ------- [4:0 0:3 32 0] [6 0] 0 0
r 1.119445400 _4_ RTR  --- 30 tcp 1540 [0 0 0 0] ------- [4:0 0:3 32 0] [6 0] 0 0
s 1.119445400 _4_ RTR  --- 30 tcp 1560 [0 0 0 0] ------- [4:0 0:3 32 0] [6 0] 0 0
r 1.119735079 _0_ MAC  --- 0 ACK 38 [0 0 0 0] 
s 1.119945079 _0_ MAC  --- 0 RTS 44 [62e 4 0 0] 
r 1.120297758 _4_ MAC  --- 0 RTS 44 [62e 4 0 0] 
s 1.120307758 _4_ MAC  --- 0 CTS 38 [4f4 0 0 0] 
r 1.120612436 _0_ MAC  --- 0 CTS 38 [4f4 0 0 0] 
s 1.120622436 _0_ MAC  --- 26 ack 118 [13a 4 0 800] ------- [0:3 4:0 32 4] [3 0] 0 0
r 1.121567115 _4_ MAC  --- 26 ack 60 [13a 4 0 800] ------- [0:3 4:0 32 4] [3 0] 1 0
s 1.121577115 _4_ MAC  --- 0 ACK 38 [0 0 0 0] 
r 1.121592115 _4_ AGT  --- 26 ack 60 [13a 4 0 800] ------- [0:3 4:0 32 4] [3 0] 1 0
s 1.121592115 _4_ AGT  --- 31 tcp 1540 [0 0 0 0] ------- [4:0 0:3 32 0] [7 0] 0 0
r 1.121592115 _4_ RTR  --- 31 tcp 1540 [0 0 0 0] ------- [4:0 0:3 32 0] [7 0] 0 0
s 1.121592115 _4_ RTR  --- 31 tcp 1560 [0 0 0 0] ------- [4:0 0:3 32 0] [7 0] 0 0
s 1.121592115 _4_ AGT  --- 32 tcp 1540 [0 0 0 0] ------- [4:0 0:3 32 0] [8 0] 0 0
r 1.121592115 _4_ RTR  --- 32 tcp 1540 [0 0 0 0] ------- [4:0 0:3 32 0] [8 0] 0 0
s 1.121592115 _4_ RTR  --- 32 tcp 1560 [0 0 0 0] ------- [4:0 0:3 32 0] [8 0] 0 0
r 1.121881794 _0_ MAC  --- 0 ACK 38 [0 0 0 0] 
s 1.121971115 _4_ MAC  --- 0 RTS 44 [350e 0 4 0] 
r 1.122323794 _0_ MAC  --- 0 RTS 44 [350e 0 4 0] 
s 1.122333794 _0_ MAC  --- 0 CTS 38 [33d4 4 0 0] 
r 1.122638473 _4_ MAC  --- 0 CTS 38 [33d4 4 0 0] 
s 1.122648473 _4_ MAC  --- 21 tcp 1618 [13a 0 4 800] ------- [4:0 0:3 32 0] [4 0] 0 0
r 1.135593152 _0_ MAC  --- 21 tcp 1560 [13a 0 4 800] ------- [4:0 0:3 32 0] [4 0] 1 0
s 1.135603152 _0_ MAC  --- 0 ACK 38 [0 4 0 0] 
r 1.135618152 _0_ AGT  --- 21 tcp 1560 [13a 0 4 800] ------- [4:0 0:3 32 0] [4 0] 1 0
s 1.135618152 _0_ AGT  --- 33 ack 40 [0 0 0 0] ------- [0:3 4:0 32 0] [4 0] 0 0
r 1.135618152 _0_ RTR  --- 33 ack 40 [0 0 0 0] ------- [0:3 4:0 32 0] [4 0] 0 0
s 1.135618152 _0_ RTR  --- 33 ack 60 [0 0 0 0] ------- [0:3 4:0 32 4] [4 0] 0 0
r 1.135907831 _4_ MAC  --- 0 ACK 38 [0 4 0 0] 
s 1.136037831 _4_ MAC  --- 0 RTS 44 [350e 0 4 0] 
r 1.136390510 _0_ MAC  --- 0 RTS 44 [350e 0 4 0] 
s 1.136400510 _0_ MAC  --- 0 CTS 38 [33d4 4 0 0] 
r 1.136705189 _4_ MAC  --- 0 CTS 38 [33d4 4 0 0] 
s 1.136715189 _4_ MAC  --- 29 tcp 1618 [13a 0 4 800] ------- [4:0 0:3 32 0] [5 0] 0 0
r 1.149659868 _0_ MAC  --- 29 tcp 1560 [13a 0 4 800] ------- [4:0 0:3 32 0] [5 0] 1 0
s 1.149669868 _0_ MAC  --- 0 ACK 38 [0 4 0 0] 
r 1.149684868 _0_ AGT  --- 29 tcp 1560 [13a 0 4 800] ------- [4:0 0:3 32 0] [5 0] 1 0
s 1.149684868 _0_ AGT  --- 34 ack 40 [0 0 0 0] ------- [0:3 4:0 32 0] [5 0] 0 0
r 1.149684868 _0_ RTR  --- 34 ack 40 [0 0 0 0] ------- [0:3 4:0 32 0] [5 0] 0 0
s 1.149684868 _0_ RTR  --- 34 ack 60 [0 0 0 0] ------- [0:3 4:0 32 4] [5 0] 0 0
r 1.149974547 _4_ MAC  --- 0 ACK 38 [0 4 0 0] 
s 1.150143868 _0_ MAC  --- 0 RTS 44 [62e 4 0 0] 
r 1.150496547 _4_ MAC  --- 0 RTS 44 [62e 4 0 0] 
s 1.150506547 _4_ MAC  --- 0 CTS 38 [4f4 0 0 0] 
r 1.150811226 _0_ MAC  --- 0 CTS 38 [4f4 0 0 0] 
s 1.150821226 _0_ MAC  --- 33 ack 118 [13a 4 0 800] ------- [0:3 4:0 32 4] [4 0] 0 0
r 1.151765905 _4_ MAC  --- 33 ack 60 [13a 4 0 800] ------- [0:3 4:0 32 4] [4 0] 1 0
s 1.151775905 _4_ MAC  --- 0 ACK 38 [0 0 0 0] 
r 1.151790905 _4_ AGT  --- 33 ack 60 [13a 4 0 800] ------- [0:3 4:0 32 4] [4 0] 1 0
s 1.151790905 _4_ AGT  --- 35 tcp 1540 [0 0 0 0] ------- [4:0 0:3 32 0] [9 0] 0 0
r 1.151790905 _4_ RTR  --- 35 tcp 1540 [0 0 0 0] ------- [4:0 0:3 32 0] [9 0] 0 0
s 1.151790905 _4_ RTR  --- 35 tcp 1560 [0 0 0 0] ------- [4:0 0:3 32 0] [9 0] 0 0
s 1.151790905 _4_ AGT  --- 36 tcp 1540 [0 0 0 0] ------- [4:0 0:3 32 0] [10 0] 0 0
r 1.151790905 _4_ RTR  --- 36 tcp 1540 [0 0 0 0] ------- [4:0 0:3 32 0] [10 0] 0 0
s 1.151790905 _4_ RTR  --- 36 tcp 1560 [0 0 0 0] ------- [4:0 0:3 32 0] [10 0] 0 0
r 1.152080584 _0_ MAC  --- 0 ACK 38 [0 0 0 0] 
s 1.152130584 _0_ MAC  --- 0 RTS 44 [62e 4 0 0] 
r 1.152483263 _4_ MAC  --- 0 RTS 44 [62e 4 0 0] 
s 1.152493263 _4_ MAC  --- 0 CTS 38 [4f4 0 0 0] 
r 1.152797941 _0_ MAC  --- 0 CTS 38 [4f4 0 0 0] 
s 1.152807941 _0_ MAC  --- 34 ack 118 [13a 4 0 800] ------- [0:3 4:0 32 4] [5 0] 0 0
r 1.153752620 _4_ MAC  --- 34 ack 60 [13a 4 0 800] ------- [0:3 4:0 32 4] [5 0] 1 0
s 1.153762620 _4_ MAC  --- 0 ACK 38 [0 0 0 0] 
r 1.153777620 _4_ AGT  --- 34 ack 60 [13a 4 0 800] ------- [0:3 4:0 32 4] [5 0] 1 0
s 1.153777620 _4_ AGT  --- 37 tcp 1540 [0 0 0 0] ------- [4:0 0:3 32 0] [11 0] 0 0
r 1.153777620 _4_ RTR  --- 37 tcp 1540 [0 0 0 0] ------- [4:0 0:3 32 0] [11 0] 0 0
s 1.153777620 _4_ RTR  --- 37 tcp 1560 [0 0 0 0] ------- [4:0 0:3 32 0] [11 0] 0 0
s 1.153777620 _4_ AGT  --- 38 tcp 1540 [0 0 0 0] ------- [4:0 0:3 32 0] [12 0] 0 0
r 1.153777620 _4_ RTR  --- 38 tcp 1540 [0 0 0 0] ------- [4:0 0:3 32 0] [12 0] 0 0
s 1.153777620 _4_ RTR  --- 38 tcp 1560 [0 0 0 0] ------- [4:0 0:3 32 0] [12 0] 0 0
r 1.154067299 _0_ MAC  --- 0 ACK 38 [0 0 0 0] 
s 1.154316620 _4_ MAC  --- 0 RTS 44 [350e 0 4 0] 
r 1.154669299 _0_ MAC  --- 0 RTS 44 [350e 0 4 0] 
s 1.154679299 _0_ MAC  --- 0 CTS 38 [33d4 4 0 0] 
r 1.154983978 _4_ MAC  --- 0 CTS 38 [33d4 4 0 0] 
s 1.154993978 _4_ MAC  --- 30 tcp 1618 [13a 0 4 800] ------- [4:0 0:3 32 0] [6 0] 0 0
r 1.167938657 _0_ MAC  --- 30 tcp 1560 [13a 0 4 800] ------- [4:0 0:3 32 0] [6 0] 1 0
s 1.167948657 _0_ MAC  --- 0 ACK 38 [0 4 0 0] 
r 1.167963657 _0_ AGT  --- 30 tcp 1560 [13a 0 4 800] ------- [4:0 0:3 32 0] [6 0] 1 0
s 1.167963657 _0_ AGT  --- 39 ack 40 [0 0 0 0] ------- [0:3 4:0 32 0] [6 0] 0 0
r 1.167963657 _0_ RTR  --- 39 ack 40 [0 0 0 0] ------- [0:3 4:0 32 0] [6 0] 0 0
s 1.167963657 _0_ RTR  --- 39 ack 60 [0 0 0 0] ------- [0:3 4:0 32 4] [6 0] 0 0
r 1.168253336 _4_ MAC  --- 0 ACK 38 [0 4 0 0] 
s 1.168362657 _0_ MAC  --- 0 RTS 44 [62e 4 0 0] 
r 1.168715336 _4_ MAC  --- 0 RTS 44 [62e 4 0 0] 
s 1.168725336 _4_ MAC  --- 0 CTS 38 [4f4 0 0 0] 
r 1.169030015 _0_ MAC  --- 0 CTS 38 [4f4 0 0 0] 
s 1.169040015 _0_ MAC  --- 39 ack 118 [13a 4 0 800] ------- [0:3 4:0 32 4] [6 0] 0 0
r 1.169984694 _4_ MAC  --- 39 ack 60 [13a 4 0 800] ------- [0:3 4:0 32 4] [6 0] 1 0
s 1.169994694 _4_ MAC  --- 0 ACK 38 [0 0 0 0] 
r 1.170009694 _4_ AGT  --- 39 ack 60 [13a 4 0 800] ------- [0:3 4:0 32 4] [6 0] 1 0
s 1.170009694 _4_ AGT  --- 40 tcp 1540 [0 0 0 0] ------- [4:0 0:3 32 0] [13 0] 0 0
r 1.170009694 _4_ RTR  --- 40 tcp 1540 [0 0 0 0] ------- [4:0 0:3 32 0] [13 0] 0 0
s 1.170009694 _4_ RTR  --- 40 tcp 1560 [0 0 0 0] ------- [4:0 0:3 32 0] [13 0] 0 0
s 1.170009694 _4_ AGT  --- 41 tcp 1540 [0 0 0 0] ------- [4:0 0:3 32 0] [14 0] 0 0
r 1.170009694 _4_ RTR  --- 41 tcp 1540 [0 0 0 0] ------- [4:0 0:3 32 0] [14 0] 0 0
s 1.170009694 _4_ RTR  --- 41 tcp 1560 [0 0 0 0] ------- [4:0 0:3 32 0] [14 0] 0 0
r 1.170299373 _0_ MAC  --- 0 ACK 38 [0 0 0 0] 
s 1.170608694 _4_ MAC  --- 0 RTS 44 [350e 0 4 0] 
r 1.170961373 _0_ MAC  --- 0 RTS 44 [350e 0 4 0] 
s 1.170971373 _0_ MAC  --- 0 CTS 38 [33d4 4 0 0] 
r 1.171276052 _4_ MAC  --- 0 CTS 38 [33d4 4 0 0] 
s 1.171286052 _4_ MAC  --- 31 tcp 1618 [13a 0 4 800] ------- [4:0 0:3 32 0] [7 0] 0 0
r 1.184230731 _0_ MAC  --- 31 tcp 1560 [13a 0 4 800] ------- [4:0 0:3 32 0] [7 0] 1 0
s 1.184240731 _0_ MAC  --- 0 ACK 38 [0 4 0 0] 
r 1.184255731 _0_ AGT  --- 31 tcp 1560 [13a 0 4 800] ------- [4:0 0:3 32 0] [7 0] 1 0
s 1.184255731 _0_ AGT  --- 42 ack 40 [0 0 0 0] ------- [0:3 4:0 32 0] [7 0] 0 0
r 1.184255731 _0_ RTR  --- 42 ack 40 [0 0 0 0] ------- [0:3 4:0 32 0] [7 0] 0 0
s 1.184255731 _0_ RTR  --- 42 ack 60 [0 0 0 0] ------- [0:3 4:0 32 4] [7 0] 0 0
r 1.184545410 _4_ MAC  --- 0 ACK 38 [0 4 0 0] 
s 1.184615410 _4_ MAC  --- 0 RTS 44 [350e 0 4 0] 
r 1.184968089 _0_ MAC  --- 0 RTS 44 [350e 0 4 0] 
s 1.184978089 _0_ MAC  --- 0 CTS 38 [33d4 4 0 0] 
r 1.185282768 _4_ MAC  --- 0 CTS 38 [33d4 4 0 0] 
s 1.185292768 _4_ MAC  --- 32 tcp 1618 [13a 0 4 800] ------- [4:0 0:3 32 0] [8 0] 0 0
r 1.198237446 _0_ MAC  --- 32 tcp 1560 [13a 0 4 800] ------- [4:0 0:3 32 0] [8 0] 1 0
s 1.198247446 _0_ MAC  --- 0 ACK 38 [0 4 0 0] 
r 1.198262446 _0_ AGT  --- 32 tcp 1560 [13a 0 4 800] ------- [4:0 0:3 32 0] [8 0] 1 0
s 1.198262446 _0_ AGT  --- 43 ack 40 [0 0 0 0] ------- [0:3 4:0 32 0] [8 0] 0 0
r 1.198262446 _0_ RTR  --- 43 ack 40 [0 0 0 0] ------- [0:3 4:0 32 0] [8 0] 0 0
s 1.198262446 _0_ RTR  --- 43 ack 60 [0 0 0 0] ------- [0:3 4:0 32 4] [8 0] 0 0
r 1.198552125 _4_ MAC  --- 0 ACK 38 [0 4 0 0] 
s 1.198621446 _0_ MAC  --- 0 RTS 44 [62e 4 0 0] 
r 1.198974125 _4_ MAC  --- 0 RTS 44 [62e 4 0 0] 
s 1.198984125 _4_ MAC  --- 0 CTS 38 [4f4 0 0 0] 
r 1.199288804 _0_ MAC  --- 0 CTS 38 [4f4 0 0 0] 
s 1.199298804 _0_ MAC  --- 42 ack 118 [13a 4 0 800] ------- [0:3 4:0 32 4] [7 0] 0 0
r 1.200243483 _4_ MAC  --- 42 ack 60 [13a 4 0 800] ------- [0:3 4:0 32 4] [7 0] 1 0
s 1.200253483 _4_ MAC  --- 0 ACK 38 [0 0 0 0] 
r 1.200268483 _4_ AGT  --- 42 ack 60 [13a 4 0 800] ------- [0:3 4:0 32 4] [7 0] 1 0
s 1.200268483 _4_ AGT  --- 44 tcp 1540 [0 0 0 0] ------- [4:0 0:3 32 0] [15 0] 0 0
r 1.200268483 _4_ RTR  --- 44 tcp 1540 [0 0 0 0] ------- [4:0 0:3 32 0] [15 0] 0 0
s 1.200268483 _4_ RTR  --- 44 tcp 1560 [0 0 0 0] ------- [4:0 0:3 32 0] [15 0] 0 0
s 1.200268483 _4_ AGT  --- 45 tcp 1540 [0 0 0 0] ------- [4:0 0:3 32 0] [16 0] 0 0
r 1.200268483 _4_ RTR  --- 45 tcp 1540 [0 0 0 0] ------- [4:0 0:3 32 0] [16 0] 0 0
s 1.200268483 _4_ RTR  --- 45 tcp 1560 [0 0 0 0] ------- [4:0 0:3 32 0] [16 0] 0 0
r 1.200558162 _0_ MAC  --- 0 ACK 38 [0 0 0 0] 
s 1.200848162 _0_ MAC  --- 0 RTS 44 [62e 4 0 0] 
r 1.201200841 _4_ MAC  --- 0 RTS 44 [62e 4 0 0] 
s 1.201210841 _4_ MAC  --- 0 CTS 38 [4f4 0 0 0] 
r 1.201515520 _0_ MAC  --- 0 CTS 38 [4f4 0 0 0] 
s 1.201525520 _0_ MAC  --- 43 ack 118 [13a 4 0 800] ------- [0:3 4:0 32 4] [8 0] 0 0
r 1.202470199 _4_ MAC  --- 43 ack 60 [13a 4 0 800] ------- [0:3 4:0 32 4] [8 0] 1 0
s 1.202480199 _4_ MAC  --- 0 ACK 38 [0 0 0 0] 
r 1.202495199 _4_ AGT  --- 43 ack 60 [13a 4 0 800] ------- [0:3 4:0 32 4] [8 0] 1 0
s 1.202495199 _4_ AGT  --- 46 tcp 1540 [0 0 0 0] ------- [4:0 0:3 32 0] [17 0] 0 0
r 1.202495199 _4_ RTR  --- 46 tcp 1540 [0 0 0 0] ------- [4:0 0:3 32 0] [17 0] 0 0
s 1.202495199 _4_ RTR  --- 46 tcp 1560 [0 0 0 0] ------- [4:0 0:3 32 0] [17 0] 0 0
s 1.202495199 _4_ AGT  --- 47 tcp 1540 [0 0 0 0] ------- [4:0 0:3 32 0] [18 0] 0 0
r 1.202495199 _4_ RTR  --- 47 tcp 1540 [0 0 0 0] ------- [4:0 0:3 32 0] [18 0] 0 0
s 1.202495199 _4_ RTR  --- 47 tcp 1560 [0 0 0 0] ------- [4:0 0:3 32 0] [18 0] 0 0