n -t * -s 0  -x 638 -y 329 -Z 0 -z 20  -v circle -c black
n -t * -s 1  -x 528 -y 480 -Z 0 -z 20  -v circle -c black
n -t * -s 2  -x 447 -y 217 -Z 0 -z 20  -v circle -c black
n -t * -s 3  -x 719 -y 128 -Z 0 -z 20  -v circle -c black
n -t * -s 4  -x 824 -y 412 -Z 0 -z 20  -v circle -c black
V -t * -v 1.0a5 -a 0
W -t * -x 1277 -y 100
A -t * -n 1 -p 0 -o 0x7fffffff -c 30 -a 1
A -t * -h 1 -m 1073741823 -s 0
+ -t 0.475592155 -s 4 -d -1 -p message -e 32 -c 2 -a 0 -i 0 -k RTR 
- -t 0.475592155 -s 4 -d -1 -p message -e 32 -c 2 -a 0 -i 0 -k RTR
h -t 0.475592155 -s 4 -d -1 -p message -e 32 -c 2 -a 0 -i 0 -k RTR
+ -t 0.475907155 -s 4 -d -1 -p message -e 90 -c 2 -a 0 -i 0 -k MAC 
- -t 0.475907155 -s 4 -d -1 -p message -e 90 -c 2 -a 0 -i 0 -k MAC
h -t 0.475907155 -s 4 -d -1 -p message -e 90 -c 2 -a 0 -i 0 -k MAC
r -t 0.476627834 -s 0 -d -1 -p message -e 32 -c 2 -a 0 -i 0 -k MAC
r -t 0.476652834 -s 0 -d -1 -p message -e 32 -c 2 -a 0 -i 0 -k RTR
+ -t 0.626351489 -s 2 -d -1 -p message -e 32 -c 2 -a 0 -i 1 -k RTR 
- -t 0.626351489 -s 2 -d -1 -p message -e 32 -c 2 -a 0 -i 1 -k RTR
h -t 0.626351489 -s 2 -d -1 -p message -e 32 -c 2 -a 0 -i 1 -k RTR
+ -t 0.626786489 -s 2 -d -1 -p message -e 90 -c 2 -a 0 -i 1 -k MAC 
- -t 0.626786489 -s 2 -d -1 -p message -e 90 -c 2 -a 0 -i 1 -k MAC
h -t 0.626786489 -s 2 -d -1 -p message -e 90 -c 2 -a 0 -i 1 -k MAC
r -t 0.627507227 -s 0 -d -1 -p message -e 32 -c 2 -a 0 -i 1 -k MAC
r -t 0.627532227 -s 0 -d -1 -p message -e 32 -c 2 -a 0 -i 1 -k RTR
+ -t 0.886583331 -s 0 -d -1 -p message -e 32 -c 2 -a 0 -i 2 -k RTR 
- -t 0.886583331 -s 0 -d -1 -p message -e 32 -c 2 -a 0 -i 2 -k RTR
h -t 0.886583331 -s 0 -d -1 -p message -e 32 -c 2 -a 0 -i 2 -k RTR
+ -t 0.886998331 -s 0 -d -1 -p message -e 90 -c 2 -a 0 -i 2 -k MAC 
- -t 0.886998331 -s 0 -d -1 -p message -e 90 -c 2 -a 0 -i 2 -k MAC
h -t 0.886998331 -s 0 -d -1 -p message -e 90 -c 2 -a 0 -i 2 -k MAC
r -t 0.887718954 -s 1 -d -1 -p message -e 32 -c 2 -a 0 -i 2 -k MAC
r -t 0.887719010 -s 4 -d -1 -p message -e 32 -c 2 -a 0 -i 2 -k MAC
r -t 0.887719054 -s 3 -d -1 -p message -e 32 -c 2 -a 0 -i 2 -k MAC
r -t 0.887719070 -s 2 -d -1 -p message -e 32 -c 2 -a 0 -i 2 -k MAC
r -t 0.887743954 -s 1 -d -1 -p message -e 32 -c 2 -a 0 -i 2 -k RTR
r -t 0.887744010 -s 4 -d -1 -p message -e 32 -c 2 -a 0 -i 2 -k RTR
r -t 0.887744054 -s 3 -d -1 -p message -e 32 -c 2 -a 0 -i 2 -k RTR
r -t 0.887744070 -s 2 -d -1 -p message -e 32 -c 2 -a 0 -i 2 -k RTR
+ -t 1.000000000 -s 1 -d -1 -p tcp -e 40 -c 2 -a 0 -i 3 -k AGT 
- -t 1.000000000 -s 1 -d -1 -p tcp -e 40 -c 2 -a 0 -i 3 -k AGT
h -t 1.000000000 -s 1 -d -1 -p tcp -e 40 -c 2 -a 0 -i 3 -k AGT
+ -t 1.000000000 -s 1 -d 0 -p tcp -e 60 -c 2 -a 0 -i 3 -k RTR 
- -t 1.000000000 -s 1 -d 0 -p tcp -e 60 -c 2 -a 0 -i 3 -k RTR
h -t 1.000000000 -s 1 -d 0 -p tcp -e 60 -c 2 -a 0 -i 3 -k RTR
+ -t 1.000000000 -s 2 -d -1 -p tcp -e 40 -c 2 -a 0 -i 4 -k AGT 
- -t 1.000000000 -s 2 -d -1 -p tcp -e 40 -c 2 -a 0 -i 4 -k AGT
h -t 1.000000000 -s 2 -d -1 -p tcp -e 40 -c 2 -a 0 -i 4 -k AGT
+ -t 1.000000000 -s 2 -d 0 -p tcp -e 60 -c 2 -a 0 -i 4 -k RTR 
- -t 1.000000000 -s 2 -d 0 -p tcp -e 60 -c 2 -a 0 -i 4 -k RTR
h -t 1.000000000 -s 2 -d 0 -p tcp -e 60 -c 2 -a 0 -i 4 -k RTR
+ -t 1.000000000 -s 3 -d -1 -p tcp -e 40 -c 2 -a 0 -i 5 -k AGT 
- -t 1.000000000 -s 3 -d -1 -p tcp -e 40 -c 2 -a 0 -i 5 -k AGT
h -t 1.000000000 -s 3 -d -1 -p tcp -e 40 -c 2 -a 0 -i 5 -k AGT
+ -t 1.000000000 -s 3 -d 0 -p tcp -e 60 -c 2 -a 0 -i 5 -k RTR 
- -t 1.000000000 -s 3 -d 0 -p tcp -e 60 -c 2 -a 0 -i 5 -k RTR
h -t 1.000000000 -s 3 -d 0 -p tcp -e 60 -c 2 -a 0 -i 5 -k RTR
+ -t 1.000000000 -s 4 -d -1 -p tcp -e 40 -c 2 -a 0 -i 6 -k AGT 
- -t 1.000000000 -s 4 -d -1 -p tcp -e 40 -c 2 -a 0 -i 6 -k AGT
h -t 1.000000000 -s 4 -d -1 -p tcp -e 40 -c 2 -a 0 -i 6 -k AGT
+ -t 1.000000000 -s 4 -d 0 -p tcp -e 60 -c 2 -a 0 -i 6 -k RTR 
- -t 1.000000000 -s 4 -d 0 -p tcp -e 60 -c 2 -a 0 -i 6 -k RTR
h -t 1.000000000 -s 4 -d 0 -p tcp -e 60 -c 2 -a 0 -i 6 -k RTR
+ -t 1.000075000 -s 3 -d -1 -p ARP -e 86 -c 2 -a 0 -i 0 -k MAC 
- -t 1.000075000 -s 3 -d -1 -p ARP -e 86 -c 2 -a 0 -i 0 -k MAC
h -t 1.000075000 -s 3 -d -1 -p ARP -e 86 -c 2 -a 0 -i 0 -k MAC
r -t 1.000763722 -s 0 -d -1 -p ARP -e 28 -c 2 -a 0 -i 0 -k MAC
+ -t 1.000998722 -s 0 -d -1 -p RTS -e 44 -c 2 -a 0 -i 0 -k MAC 
- -t 1.000998722 -s 0 -d -1 -p RTS -e 44 -c 2 -a 0 -i 0 -k MAC
h -t 1.000998722 -s 0 -d -1 -p RTS -e 44 -c 2 -a 0 -i 0 -k MAC
r -t 1.001351445 -s 3 -d -1 -p RTS -e 44 -c 2 -a 0 -i 0 -k MAC
+ -t 1.001361445 -s 3 -d -1 -p CTS -e 38 -c 2 -a 0 -i 0 -k MAC 
- -t 1.001361445 -s 3 -d -1 -p CTS -e 38 -c 2 -a 0 -i 0 -k MAC
h -t 1.001361445 -s 3 -d -1 -p CTS -e 38 -c 2 -a 0 -i 0 -k MAC
r -t 1.001666167 -s 0 -d -1 -p CTS -e 38 -c 2 -a 0 -i 0 -k MAC
+ -t 1.001676167 -s 0 -d -1 -p ARP -e 86 -c 2 -a 0 -i 0 -k MAC 
- -t 1.001676167 -s 0 -d -1 -p ARP -e 86 -c 2 -a 0 -i 0 -k MAC
h -t 1.001676167 -s 0 -d -1 -p ARP -e 86 -c 2 -a 0 -i 0 -k MAC
r -t 1.002364889 -s 3 -d -1 -p ARP -e 28 -c 2 -a 0 -i 0 -k MAC
+ -t 1.002374889 -s 3 -d -1 -p ACK -e 38 -c 2 -a 0 -i 0 -k MAC 
- -t 1.002374889 -s 3 -d -1 -p ACK -e 38 -c 2 -a 0 -i 0 -k MAC
h -t 1.002374889 -s 3 -d -1 -p ACK -e 38 -c 2 -a 0 -i 0 -k MAC
r -t 1.002679612 -s 0 -d -1 -p ACK -e 38 -c 2 -a 0 -i 0 -k MAC
+ -t 1.002988889 -s 3 -d -1 -p RTS -e 44 -c 2 -a 0 -i 0 -k MAC 
- -t 1.002988889 -s 3 -d -1 -p RTS -e 44 -c 2 -a 0 -i 0 -k MAC
h -t 1.002988889 -s 3 -d -1 -p RTS -e 44 -c 2 -a 0 -i 0 -k MAC
r -t 1.003341612 -s 0 -d -1 -p RTS -e 44 -c 2 -a 0 -i 0 -k MAC
+ -t 1.003351612 -s 0 -d -1 -p CTS -e 38 -c 2 -a 0 -i 0 -k MAC 
- -t 1.003351612 -s 0 -d -1 -p CTS -e 38 -c 2 -a 0 -i 0 -k MAC
h -t 1.003351612 -s 0 -d -1 -p CTS -e 38 -c 2 -a 0 -i 0 -k MAC
r -t 1.003656334 -s 3 -d -1 -p CTS -e 38 -c 2 -a 0 -i 0 -k MAC
+ -t 1.003666334 -s 3 -d 0 -p tcp -e 118 -c 2 -a 0 -i 5 -k MAC 
- -t 1.003666334 -s 3 -d 0 -p tcp -e 118 -c 2 -a 0 -i 5 -k MAC
h -t 1.003666334 -s 3 -d 0 -p tcp -e 118 -c 2 -a 0 -i 5 -k MAC
r -t 1.004611057 -s 0 -d 0 -p tcp -e 60 -c 2 -a 0 -i 5 -k MAC
+ -t 1.004621057 -s 0 -d -1 -p ACK -e 38 -c 2 -a 0 -i 0 -k MAC 
- -t 1.004621057 -s 0 -d -1 -p ACK -e 38 -c 2 -a 0 -i 0 -k MAC
h -t 1.004621057 -s 0 -d -1 -p ACK -e 38 -c 2 -a 0 -i 0 -k MAC
r -t 1.004636057 -s 0 -d 0 -p tcp -e 60 -c 2 -a 0 -i 5 -k AGT
+ -t 1.004636057 -s 0 -d -1 -p ack -e 40 -c 2 -a 0 -i 7 -k AGT 
- -t 1.004636057 -s 0 -d -1 -p ack -e 40 -c 2 -a 0 -i 7 -k AGT
h -t 1.004636057 -s 0 -d -1 -p ack -e 40 -c 2 -a 0 -i 7 -k AGT
r -t 1.004925779 -s 3 -d -1 -p ACK -e 38 -c 2 -a 0 -i 0 -k MAC
+ -t 1.005205669 -s 1 -d -1 -p ARP -e 86 -c 2 -a 0 -i 0 -k MAC 
- -t 1.005205669 -s 1 -d -1 -p ARP -e 86 -c 2 -a 0 -i 0 -k MAC
h -t 1.005205669 -s 1 -d -1 -p ARP -e 86 -c 2 -a 0 -i 0 -k MAC
r -t 1.005894292 -s 0 -d -1 -p ARP -e 28 -c 2 -a 0 -i 0 -k MAC
+ -t 1.006064292 -s 0 -d -1 -p RTS -e 44 -c 2 -a 0 -i 0 -k MAC 
- -t 1.006064292 -s 0 -d -1 -p RTS -e 44 -c 2 -a 0 -i 0 -k MAC
h -t 1.006064292 -s 0 -d -1 -p RTS -e 44 -c 2 -a 0 -i 0 -k MAC
r -t 1.006416915 -s 1 -d -1 -p RTS -e 44 -c 2 -a 0 -i 0 -k MAC
+ -t 1.006426915 -s 1 -d -1 -p CTS -e 38 -c 2 -a 0 -i 0 -k MAC 
- -t 1.006426915 -s 1 -d -1 -p CTS -e 38 -c 2 -a 0 -i 0 -k MAC
h -t 1.006426915 -s 1 -d -1 -p CTS -e 38 -c 2 -a 0 -i 0 -k MAC
r -t 1.006731537 -s 0 -d -1 -p CTS -e 38 -c 2 -a 0 -i 0 -k MAC
+ -t 1.006741537 -s 0 -d -1 -p ARP -e 86 -c 2 -a 0 -i 0 -k MAC 
- -t 1.006741537 -s 0 -d -1 -p ARP -e 86 -c 2 -a 0 -i 0 -k MAC
h -t 1.006741537 -s 0 -d -1 -p ARP -e 86 -c 2 -a 0 -i 0 -k MAC
r -t 1.007430160 -s 1 -d -1 -p ARP -e 28 -c 2 -a 0 -i 0 -k MAC
+ -t 1.007440160 -s 1 -d -1 -p ACK -e 38 -c 2 -a 0 -i 0 -k MAC 
- -t 1.007440160 -s 1 -d -1 -p ACK -e 38 -c 2 -a 0 -i 0 -k MAC
h -t 1.007440160 -s 1 -d -1 -p ACK -e 38 -c 2 -a 0 -i 0 -k MAC
r -t 1.007744783 -s 0 -d -1 -p ACK -e 38 -c 2 -a 0 -i 0 -k MAC
+ -t 1.008179077 -s 2 -d -1 -p ARP -e 86 -c 2 -a 0 -i 0 -k MAC 
- -t 1.008179077 -s 2 -d -1 -p ARP -e 86 -c 2 -a 0 -i 0 -k MAC
h -t 1.008179077 -s 2 -d -1 -p ARP -e 86 -c 2 -a 0 -i 0 -k MAC
r -t 1.008867815 -s 0 -d -1 -p ARP -e 28 -c 2 -a 0 -i 0 -k MAC
+ -t 1.009222815 -s 0 -d -1 -p RTS -e 44 -c 2 -a 0 -i 0 -k MAC 
- -t 1.009222815 -s 0 -d -1 -p RTS -e 44 -c 2 -a 0 -i 0 -k MAC
h -t 1.009222815 -s 0 -d -1 -p RTS -e 44 -c 2 -a 0 -i 0 -k MAC
r -t 1.009575553 -s 2 -d -1 -p RTS -e 44 -c 2 -a 0 -i 0 -k MAC
+ -t 1.009585553 -s 2 -d -1 -p CTS -e 38 -c 2 -a 0 -i 0 -k MAC 
- -t 1.009585553 -s 2 -d -1 -p CTS -e 38 -c 2 -a 0 -i 0 -k MAC
h -t 1.009585553 -s 2 -d -1 -p CTS -e 38 -c 2 -a 0 -i 0 -k MAC
r -t 1.009890291 -s 0 -d -1 -p CTS -e 38 -c 2 -a 0 -i 0 -k MAC
+ -t 1.009900291 -s 0 -d -1 -p ARP -e 86 -c 2 -a 0 -i 0 -k MAC 
- -t 1.009900291 -s 0 -d -1 -p ARP -e 86 -c 2 -a 0 -i 0 -k MAC
h -t 1.009900291 -s 0 -d -1 -p ARP -e 86 -c 2 -a 0 -i 0 -k MAC
r -t 1.010589030 -s 2 -d -1 -p ARP -e 28 -c 2 -a 0 -i 0 -k MAC
+ -t 1.010599030 -s 2 -d -1 -p ACK -e 38 -c 2 -a 0 -i 0 -k MAC 
- -t 1.010599030 -s 2 -d -1 -p ACK -e 38 -c 2 -a 0 -i 0 -k MAC
h -t 1.010599030 -s 2 -d -1 -p ACK -e 38 -c 2 -a 0 -i 0 -k MAC
r -t 1.010903768 -s 0 -d -1 -p ACK -e 38 -c 2 -a 0 -i 0 -k MAC
+ -t 1.011313030 -s 2 -d -1 -p RTS -e 44 -c 2 -a 0 -i 0 -k MAC 
- -t 1.011313030 -s 2 -d -1 -p RTS -e 44 -c 2 -a 0 -i 0 -k MAC
h -t 1.011313030 -s 2 -d -1 -p RTS -e 44 -c 2 -a 0 -i 0 -k MAC
r -t 1.011665768 -s 0 -d -1 -p RTS -e 44 -c 2 -a 0 -i 0 -k MAC
+ -t 1.011675768 -s 0 -d -1 -p CTS -e 38 -c 2 -a 0 -i 0 -k MAC 
- -t 1.011675768 -s 0 -d -1 -p CTS -e 38 -c 2 -a 0 -i 0 -k MAC
h -t 1.011675768 -s 0 -d -1 -p CTS -e 38 -c 2 -a 0 -i 0 -k MAC
r -t 1.011980506 -s 2 -d -1 -p CTS -e 38 -c 2 -a 0 -i 0 -k MAC
+ -t 1.011990506 -s 2 -d 0 -p tcp -e 118 -c 2 -a 0 -i 4 -k MAC 
- -t 1.011990506 -s 2 -d 0 -p tcp -e 118 -c 2 -a 0 -i 4 -k MAC
h -t 1.011990506 -s 2 -d 0 -p tcp -e 118 -c 2 -a 0 -i 4 -k MAC
r -t 1.012935244 -s 0 -d 0 -p tcp -e 60 -c 2 -a 0 -i 4 -k MAC
+ -t 1.012945244 -s 0 -d -1 -p ACK -e 38 -c 2 -a 0 -i 0 -k MAC 
- -t 1.012945244 -s 0 -d -1 -p ACK -e 38 -c 2 -a 0 -i 0 -k MAC
h -t 1.012945244 -s 0 -d -1 -p ACK -e 38 -c 2 -a 0 -i 0 -k MAC
r -t 1.012960244 -s 0 -d 0 -p tcp -e 60 -c 2 -a 0 -i 4 -k AGT
+ -t 1.012960244 -s 0 -d -1 -p ack -e 40 -c 2 -a 0 -i 8 -k AGT 
- -t 1.012960244 -s 0 -d -1 -p ack -e 40 -c 2 -a 0 -i 8 -k AGT
h -t 1.012960244 -s 0 -d -1 -p ack -e 40 -c 2 -a 0 -i 8 -k AGT
+ -t 1.012960244 -s 0 -d 2 -p ack -e 60 -c 2 -a 0 -i 8 -k RTR 
- -t 1.012960244 -s 0 -d 2 -p ack -e 60 -c 2 -a 0 -i 8 -k RTR
h -t 1.012960244 -s 0 -d 2 -p ack -e 60 -c 2 -a 0 -i 8 -k RTR
r -t 1.013249982 -s 2 -d -1 -p ACK -e 38 -c 2 -a 0 -i 0 -k MAC
+ -t 1.013369920 -s 4 -d -1 -p ARP -e 86 -c 2 -a 0 -i 0 -k MAC 
- -t 1.013369920 -s 4 -d -1 -p ARP -e 86 -c 2 -a 0 -i 0 -k MAC
h -t 1.013369920 -s 4 -d -1 -p ARP -e 86 -c 2 -a 0 -i 0 -k MAC
r -t 1.014058599 -s 0 -d -1 -p ARP -e 28 -c 2 -a 0 -i 0 -k MAC
+ -t 1.014128599 -s 0 -d -1 -p RTS -e 44 -c 2 -a 0 -i 0 -k MAC 
- -t 1.014128599 -s 0 -d -1 -p RTS -e 44 -c 2 -a 0 -i 0 -k MAC
h -t 1.014128599 -s 0 -d -1 -p RTS -e 44 -c 2 -a 0 -i 0 -k MAC
r -t 1.014481337 -s 2 -d -1 -p RTS -e 44 -c 2 -a 0 -i 0 -k MAC
+ -t 1.014491337 -s 2 -d -1 -p CTS -e 38 -c 2 -a 0 -i 0 -k MAC 
- -t 1.014491337 -s 2 -d -1 -p CTS -e 38 -c 2 -a 0 -i 0 -k MAC
h -t 1.014491337 -s 2 -d -1 -p CTS -e 38 -c 2 -a 0 -i 0 -k MAC
r -t 1.014796075 -s 0 -d -1 -p CTS -e 38 -c 2 -a 0 -i 0 -k MAC
+ -t 1.014806075 -s 0 -d 2 -p ack -e 118 -c 2 -a 0 -i 8 -k MAC 
- -t 1.014806075 -s 0 -d 2 -p ack -e 118 -c 2 -a 0 -i 8 -k MAC
h -t 1.014806075 -s 0 -d 2 -p ack -e 118 -c 2 -a 0 -i 8 -k MAC
r -t 1.015750814 -s 2 -d 2 -p ack -e 60 -c 2 -a 0 -i 8 -k MAC
+ -t 1.015760814 -s 2 -d -1 -p ACK -e 38 -c 2 -a 0 -i 0 -k MAC 
- -t 1.015760814 -s 2 -d -1 -p ACK -e 38 -c 2 -a 0 -i 0 -k MAC
h -t 1.015760814 -s 2 -d -1 -p ACK -e 38 -c 2 -a 0 -i 0 -k MAC
r -t 1.015775814 -s 2 -d 2 -p ack -e 60 -c 2 -a 0 -i 8 -k AGT
+ -t 1.015775814 -s 2 -d -1 -p tcp -e 1540 -c 2 -a 0 -i 9 -k AGT 
- -t 1.015775814 -s 2 -d -1 -p tcp -e 1540 -c 2 -a 0 -i 9 -k AGT
h -t 1.015775814 -s 2 -d -1 -p tcp -e 1540 -c 2 -a 0 -i 9 -k AGT
+ -t 1.015775814 -s 2 -d 0 -p tcp -e 1560 -c 2 -a 0 -i 9 -k RTR 
- -t 1.015775814 -s 2 -d 0 -p tcp -e 1560 -c 2 -a 0 -i 9 -k RTR
h -t 1.015775814 -s 2 -d 0 -p tcp -e 1560 -c 2 -a 0 -i 9 -k RTR
+ -t 1.015775814 -s 2 -d -1 -p tcp -e 1540 -c 2 -a 0 -i 10 -k AGT 
- -t 1.015775814 -s 2 -d -1 -p tcp -e 1540 -c 2 -a 0 -i 10 -k AGT
h -t 1.015775814 -s 2 -d -1 -p tcp -e 1540 -c 2 -a 0 -i 10 -k AGT
+ -t 1.015775814 -s 2 -d 0 -p tcp -e 1560 -c 2 -a 0 -i 10 -k RTR 
- -t 1.015775814 -s 2 -d 0 -p tcp -e 1560 -c 2 -a 0 -i 10 -k RTR
h -t 1.015775814 -s 2 -d 0 -p tcp -e 1560 -c 2 -a 0 -i 10 -k RTR
r -t 1.016065552 -s 0 -d -1 -p ACK -e 38 -c 2 -a 0 -i 0 -k MAC
+ -t 1.016215552 -s 0 -d -1 -p RTS -e 44 -c 2 -a 0 -i 0 -k MAC 
- -t 1.016215552 -s 0 -d -1 -p RTS -e 44 -c 2 -a 0 -i 0 -k MAC
h -t 1.016215552 -s 0 -d -1 -p RTS -e 44 -c 2 -a 0 -i 0 -k MAC
r -t 1.016568230 -s 4 -d -1 -p RTS -e 44 -c 2 -a 0 -i 0 -k MAC
+ -t 1.016578230 -s 4 -d -1 -p CTS -e 38 -c 2 -a 0 -i 0 -k MAC 
- -t 1.016578230 -s 4 -d -1 -p CTS -e 38 -c 2 -a 0 -i 0 -k MAC
h -t 1.016578230 -s 4 -d -1 -p CTS -e 38 -c 2 -a 0 -i 0 -k MAC
r -t 1.016882909 -s 0 -d -1 -p CTS -e 38 -c 2 -a 0 -i 0 -k MAC
+ -t 1.016892909 -s 0 -d -1 -p ARP -e 86 -c 2 -a 0 -i 0 -k MAC 
- -t 1.016892909 -s 0 -d -1 -p ARP -e 86 -c 2 -a 0 -i 0 -k MAC
h -t 1.016892909 -s 0 -d -1 -p ARP -e 86 -c 2 -a 0 -i 0 -k MAC
r -t 1.017581588 -s 4 -d -1 -p ARP -e 28 -c 2 -a 0 -i 0 -k MAC
+ -t 1.017591588 -s 4 -d -1 -p ACK -e 38 -c 2 -a 0 -i 0 -k MAC 
- -t 1.017591588 -s 4 -d -1 -p ACK -e 38 -c 2 -a 0 -i 0 -k MAC
h -t 1.017591588 -s 4 -d -1 -p ACK -e 38 -c 2 -a 0 -i 0 -k MAC
r -t 1.017896267 -s 0 -d -1 -p ACK -e 38 -c 2 -a 0 -i 0 -k MAC
+ -t 1.018125588 -s 4 -d -1 -p RTS -e 44 -c 2 -a 0 -i 0 -k MAC 
- -t 1.018125588 -s 4 -d -1 -p RTS -e 44 -c 2 -a 0 -i 0 -k MAC
h -t 1.018125588 -s 4 -d -1 -p RTS -e 44 -c 2 -a 0 -i 0 -k MAC
r -t 1.018478267 -s 0 -d -1 -p RTS -e 44 -c 2 -a 0 -i 0 -k MAC
+ -t 1.018488267 -s 0 -d -1 -p CTS -e 38 -c 2 -a 0 -i 0 -k MAC 
- -t 1.018488267 -s 0 -d -1 -p CTS -e 38 -c 2 -a 0 -i 0 -k MAC
h -t 1.018488267 -s 0 -d -1 -p CTS -e 38 -c 2 -a 0 -i 0 -k MAC
r -t 1.018792946 -s 4 -d -1 -p CTS -e 38 -c 2 -a 0 -i 0 -k MAC
+ -t 1.018802946 -s 4 -d 0 -p tcp -e 118 -c 2 -a 0 -i 6 -k MAC 
- -t 1.018802946 -s 4 -d 0 -p tcp -e 118 -c 2 -a 0 -i 6 -k MAC
h -t 1.018802946 -s 4 -d 0 -p tcp -e 118 -c 2 -a 0 -i 6 -k MAC
r -t 1.019747625 -s 0 -d 0 -p tcp -e 60 -c 2 -a 0 -i 6 -k MAC
+ -t 1.019757625 -s 0 -d -1 -p ACK -e 38 -c 2 -a 0 -i 0 -k MAC 
- -t 1.019757625 -s 0 -d -1 -p ACK -e 38 -c 2 -a 0 -i 0 -k MAC
h -t 1.019757625 -s 0 -d -1 -p ACK -e 38 -c 2 -a 0 -i 0 -k MAC
r -t 1.019772625 -s 0 -d 0 -p tcp -e 60 -c 2 -a 0 -i 6 -k AGT
+ -t 1.019772625 -s 0 -d -1 -p ack -e 40 -c 2 -a 0 -i 11 -k AGT 
- -t 1.019772625 -s 0 -d -1 -p ack -e 40 -c 2 -a 0 -i 11 -k AGT
h -t 1.019772625 -s 0 -d -1 -p ack -e 40 -c 2 -a 0 -i 11 -k AGT
+ -t 1.019772625 -s 0 -d 4 -p ack -e 60 -c 2 -a 0 -i 11 -k RTR 
- -t 1.019772625 -s 0 -d 4 -p ack -e 60 -c 2 -a 0 -i 11 -k RTR
h -t 1.019772625 -s 0 -d 4 -p ack -e 60 -c 2 -a 0 -i 11 -k RTR
r -t 1.020062304 -s 4 -d -1 -p ACK -e 38 -c 2 -a 0 -i 0 -k MAC
+ -t 1.020181959 -s 1 -d -1 -p RTS -e 44 -c 2 -a 0 -i 0 -k MAC 
- -t 1.020181959 -s 1 -d -1 -p RTS -e 44 -c 2 -a 0 -i 0 -k MAC
h -t 1.020181959 -s 1 -d -1 -p RTS -e 44 -c 2 -a 0 -i 0 -k MAC
r -t 1.020534581 -s 0 -d -1 -p RTS -e 44 -c 2 -a 0 -i 0 -k MAC
+ -t 1.020544581 -s 0 -d -1 -p CTS -e 38 -c 2 -a 0 -i 0 -k MAC 
- -t 1.020544581 -s 0 -d -1 -p CTS -e 38 -c 2 -a 0 -i 0 -k MAC
h -t 1.020544581 -s 0 -d -1 -p CTS -e 38 -c 2 -a 0 -i 0 -k MAC
r -t 1.020849204 -s 1 -d -1 -p CTS -e 38 -c 2 -a 0 -i 0 -k MAC
+ -t 1.020859204 -s 1 -d 0 -p tcp -e 118 -c 2 -a 0 -i 3 -k MAC 
- -t 1.020859204 -s 1 -d 0 -p tcp -e 118 -c 2 -a 0 -i 3 -k MAC
h -t 1.020859204 -s 1 -d 0 -p tcp -e 118 -c 2 -a 0 -i 3 -k MAC
r -t 1.021803827 -s 0 -d 0 -p tcp -e 60 -c 2 -a 0 -i 3 -k MAC
+ -t 1.021813827 -s 0 -d -1 -p ACK -e 38 -c 2 -a 0 -i 0 -k MAC 
- -t 1.021813827 -s 0 -d -1 -p ACK -e 38 -c 2 -a 0 -i 0 -k MAC
h -t 1.021813827 -s 0 -d -1 -p ACK -e 38 -c 2 -a 0 -i 0 -k MAC
r -t 1.021828827 -s 0 -d 0 -p tcp -e 60 -c 2 -a 0 -i 3 -k AGT
+ -t 1.021828827 -s 0 -d -1 -p ack -e 40 -c 2 -a 0 -i 12 -k AGT 
- -t 1.021828827 -s 0 -d -1 -p ack -e 40 -c 2 -a 0 -i 12 -k AGT
h -t 1.021828827 -s 0 -d -1 -p ack -e 40 -c 2 -a 0 -i 12 -k AGT
r -t 1.022118449 -s 1 -d -1 -p ACK -e 38 -c 2 -a 0 -i 0 -k MAC
+ -t 1.022318121 -s 2 -d -1 -p RTS -e 44 -c 2 -a 0 -i 0 -k MAC 
- -t 1.022318121 -s 2 -d -1 -p RTS -e 44 -c 2 -a 0 -i 0 -k MAC
h -t 1.022318121 -s 2 -d -1 -p RTS -e 44 -c 2 -a 0 -i 0 -k MAC
r -t 1.022670859 -s 0 -d -1 -p RTS -e 44 -c 2 -a 0 -i 0 -k MAC
+ -t 1.022680859 -s 0 -d -1 -p CTS -e 38 -c 2 -a 0 -i 0 -k MAC 
- -t 1.022680859 -s 0 -d -1 -p CTS -e 38 -c 2 -a 0 -i 0 -k MAC
h -t 1.022680859 -s 0 -d -1 -p CTS -e 38 -c 2 -a 0 -i 0 -k MAC
r -t 1.022985597 -s 2 -d -1 -p CTS -e 38 -c 2 -a 0 -i 0 -k MAC
+ -t 1.022995597 -s 2 -d 0 -p tcp -e 1618 -c 2 -a 0 -i 9 -k MAC 
- -t 1.022995597 -s 2 -d 0 -p tcp -e 1618 -c 2 -a 0 -i 9 -k MAC
h -t 1.022995597 -s 2 -d 0 -p tcp -e 1618 -c 2 -a 0 -i 9 -k MAC
r -t 1.035940335 -s 0 -d 0 -p tcp -e 1560 -c 2 -a 0 -i 9 -k MAC
+ -t 1.035950335 -s 0 -d -1 -p ACK -e 38 -c 2 -a 0 -i 0 -k MAC 
- -t 1.035950335 -s 0 -d -1 -p ACK -e 38 -c 2 -a 0 -i 0 -k MAC
h -t 1.035950335 -s 0 -d -1 -p ACK -e 38 -c 2 -a 0 -i 0 -k MAC
r -t 1.035965335 -s 0 -d 0 -p tcp -e 1560 -c 2 -a 0 -i 9 -k AGT
+ -t 1.035965335 -s 0 -d -1 -p ack -e 40 -c 2 -a 0 -i 13 -k AGT 
- -t 1.035965335 -s 0 -d -1 -p ack -e 40 -c 2 -a 0 -i 13 -k AGT
h -t 1.035965335 -s 0 -d -1 -p ack -e 40 -c 2 -a 0 -i 13 -k AGT
+ -t 1.035965335 -s 0 -d 2 -p ack -e 60 -c 2 -a 0 -i 13 -k RTR 
- -t 1.035965335 -s 0 -d 2 -p ack -e 60 -c 2 -a 0 -i 13 -k RTR
h -t 1.035965335 -s 0 -d 2 -p ack -e 60 -c 2 -a 0 -i 13 -k RTR
r -t 1.036255074 -s 2 -d -1 -p ACK -e 38 -c 2 -a 0 -i 0 -k MAC
+ -t 1.036464335 -s 0 -d -1 -p RTS -e 44 -c 2 -a 0 -i 0 -k MAC 
- -t 1.036464335 -s 0 -d -1 -p RTS -e 44 -c 2 -a 0 -i 0 -k MAC
h -t 1.036464335 -s 0 -d -1 -p RTS -e 44 -c 2 -a 0 -i 0 -k MAC
r -t 1.036817014 -s 4 -d -1 -p RTS -e 44 -c 2 -a 0 -i 0 -k MAC
+ -t 1.036827014 -s 4 -d -1 -p CTS -e 38 -c 2 -a 0 -i 0 -k MAC 
- -t 1.036827014 -s 4 -d -1 -p CTS -e 38 -c 2 -a 0 -i 0 -k MAC
h -t 1.036827014 -s 4 -d -1 -p CTS -e 38 -c 2 -a 0 -i 0 -k MAC
r -t 1.037131693 -s 0 -d -1 -p CTS -e 38 -c 2 -a 0 -i 0 -k MAC
+ -t 1.037141693 -s 0 -d 4 -p ack -e 118 -c 2 -a 0 -i 11 -k MAC 
- -t 1.037141693 -s 0 -d 4 -p ack -e 118 -c 2 -a 0 -i 11 -k MAC
h -t 1.037141693 -s 0 -d 4 -p ack -e 118 -c 2 -a 0 -i 11 -k MAC
r -t 1.038086372 -s 4 -d 4 -p ack -e 60 -c 2 -a 0 -i 11 -k MAC
+ -t 1.038096372 -s 4 -d -1 -p ACK -e 38 -c 2 -a 0 -i 0 -k MAC 
- -t 1.038096372 -s 4 -d -1 -p ACK -e 38 -c 2 -a 0 -i 0 -k MAC
h -t 1.038096372 -s 4 -d -1 -p ACK -e 38 -c 2 -a 0 -i 0 -k MAC
r -t 1.038111372 -s 4 -d 4 -p ack -e 60 -c 2 -a 0 -i 11 -k AGT
+ -t 1.038111372 -s 4 -d -1 -p tcp -e 1540 -c 2 -a 0 -i 14 -k AGT 
- -t 1.038111372 -s 4 -d -1 -p tcp -e 1540 -c 2 -a 0 -i 14 -k AGT
h -t 1.038111372 -s 4 -d -1 -p tcp -e 1540 -c 2 -a 0 -i 14 -k AGT
+ -t 1.038111372 -s 4 -d 0 -p tcp -e 1560 -c 2 -a 0 -i 14 -k RTR 
- -t 1.038111372 -s 4 -d 0 -p tcp -e 1560 -c 2 -a 0 -i 14 -k RTR
h -t 1.038111372 -s 4 -d 0 -p tcp -e 1560 -c 2 -a 0 -i 14 -k RTR
+ -t 1.038111372 -s 4 -d -1 -p tcp -e 1540 -c 2 -a 0 -i 15 -k AGT 
- -t 1.038111372 -s 4 -d -1 -p tcp -e 1540 -c 2 -a 0 -i 15 -k AGT
h -t 1.038111372 -s 4 -d -1 -p tcp -e 1540 -c 2 -a 0 -i 15 -k AGT
+ -t 1.038111372 -s 4 -d 0 -p tcp -e 1560 -c 2 -a 0 -i 15 -k RTR 
- -t 1.038111372 -s 4 -d 0 -p tcp -e 1560 -c 2 -a 0 -i 15 -k RTR
h -t 1.038111372 -s 4 -d 0 -p tcp -e 1560 -c 2 -a 0 -i 15 -k RTR
r -t 1.038401051 -s 0 -d -1 -p ACK -e 38 -c 2 -a 0 -i 0 -k MAC
+ -t 1.038510372 -s 4 -d -1 -p RTS -e 44 -c 2 -a 0 -i 0 -k MAC 
- -t 1.038510372 -s 4 -d -1 -p RTS -e 44 -c 2 -a 0 -i 0 -k MAC
h -t 1.038510372 -s 4 -d -1 -p RTS -e 44 -c 2 -a 0 -i 0 -k MAC
r -t 1.038863051 -s 0 -d -1 -p RTS -e 44 -c 2 -a 0 -i 0 -k MAC
+ -t 1.038873051 -s 0 -d -1 -p CTS -e 38 -c 2 -a 0 -i 0 -k MAC 
- -t 1.038873051 -s 0 -d -1 -p CTS -e 38 -c 2 -a 0 -i 0 -k MAC
h -t 1.038873051 -s 0 -d -1 -p CTS -e 38 -c 2 -a 0 -i 0 -k MAC
r -t 1.039177730 -s 4 -d -1 -p CTS -e 38 -c 2 -a 0 -i 0 -k MAC
+ -t 1.039187730 -s 4 -d 0 -p tcp -e 1618 -c 2 -a 0 -i 14 -k MAC 
- -t 1.039187730 -s 4 -d 0 -p tcp -e 1618 -c 2 -a 0 -i 14 -k MAC
h -t 1.039187730 -s 4 -d 0 -p tcp -e 1618 -c 2 -a 0 -i 14 -k MAC
r -t 1.052132409 -s 0 -d 0 -p tcp -e 1560 -c 2 -a 0 -i 14 -k MAC
+ -t 1.052142409 -s 0 -d -1 -p ACK -e 38 -c 2 -a 0 -i 0 -k MAC 
- -t 1.052142409 -s 0 -d -1 -p ACK -e 38 -c 2 -a 0 -i 0 -k MAC
h -t 1.052142409 -s 0 -d -1 -p ACK -e 38 -c 2 -a 0 -i 0 -k MAC
r -t 1.052157409 -s 0 -d 0 -p tcp -e 1560 -c 2 -a 0 -i 14 -k AGT
+ -t 1.052157409 -s 0 -d -1 -p ack -e 40 -c 2 -a 0 -i 16 -k AGT 
- -t 1.052157409 -s 0 -d -1 -p ack -e 40 -c 2 -a 0 -i 16 -k AGT
h -t 1.052157409 -s 0 -d -1 -p ack -e 40 -c 2 -a 0 -i 16 -k AGT
+ -t 1.052157409 -s 0 -d 4 -p ack -e 60 -c 2 -a 0 -i 16 -k RTR 
- -t 1.052157409 -s 0 -d 4 -p ack -e 60 -c 2 -a 0 -i 16 -k RTR
h -t 1.052157409 -s 0 -d 4 -p ack -e 60 -c 2 -a 0 -i 16 -k RTR
r -t 1.052447088 -s 4 -d -1 -p ACK -e 38 -c 2 -a 0 -i 0 -k MAC
+ -t 1.052576409 -s 0 -d -1 -p RTS -e 44 -c 2 -a 0 -i 0 -k MAC 
- -t 1.052576409 -s 0 -d -1 -p RTS -e 44 -c 2 -a 0 -i 0 -k MAC
h -t 1.052576409 -s 0 -d -1 -p RTS -e 44 -c 2 -a 0 -i 0 -k MAC
r -t 1.052929147 -s 2 -d -1 -p RTS -e 44 -c 2 -a 0 -i 0 -k MAC
+ -t 1.052939147 -s 2 -d -1 -p CTS -e 38 -c 2 -a 0 -i 0 -k MAC 
- -t 1.052939147 -s 2 -d -1 -p CTS -e 38 -c 2 -a 0 -i 0 -k MAC
h -t 1.052939147 -s 2 -d -1 -p CTS -e 38 -c 2 -a 0 -i 0 -k MAC
r -t 1.053243885 -s 0 -d -1 -p CTS -e 38 -c 2 -a 0 -i 0 -k MAC
+ -t 1.053253885 -s 0 -d 2 -p ack -e 118 -c 2 -a 0 -i 13 -k MAC 
- -t 1.053253885 -s 0 -d 2 -p ack -e 118 -c 2 -a 0 -i 13 -k MAC
h -t 1.053253885 -s 0 -d 2 -p ack -e 118 -c 2 -a 0 -i 13 -k MAC
r -t 1.054198623 -s 2 -d 2 -p ack -e 60 -c 2 -a 0 -i 13 -k MAC
+ -t 1.054208623 -s 2 -d -1 -p ACK -e 38 -c 2 -a 0 -i 0 -k MAC 
- -t 1.054208623 -s 2 -d -1 -p ACK -e 38 -c 2 -a 0 -i 0 -k MAC
h -t 1.054208623 -s 2 -d -1 -p ACK -e 38 -c 2 -a 0 -i 0 -k MAC
r -t 1.054223623 -s 2 -d 2 -p ack -e 60 -c 2 -a 0 -i 13 -k AGT
+ -t 1.054223623 -s 2 -d -1 -p tcp -e 1540 -c 2 -a 0 -i 17 -k AGT 
- -t 1.054223623 -s 2 -d -1 -p tcp -e 1540 -c 2 -a 0 -i 17 -k AGT
h -t 1.054223623 -s 2 -d -1 -p tcp -e 1540 -c 2 -a 0 -i 17 -k AGT
+ -t 1.054223623 -s 2 -d 0 -p tcp -e 1560 -c 2 -a 0 -i 17 -k RTR 
- -t 1.054223623 -s 2 -d 0 -p tcp -e 1560 -c 2 -a 0 -i 17 -k RTR
h -t 1.054223623 -s 2 -d 0 -p tcp -e 1560 -c 2 -a 0 -i 17 -k RTR
+ -t 1.054223623 -s 2 -d -1 -p tcp -e 1540 -c 2 -a 0 -i 18 -k AGT 
- -t 1.054223623 -s 2 -d -1 -p tcp -e 1540 -c 2 -a 0 -i 18 -k AGT
h -t 1.054223623 -s 2 -d -1 -p tcp -e 1540 -c 2 -a 0 -i 18 -k AGT
+ -t 1.054223623 -s 2 -d 0 -p tcp -e 1560 -c 2 -a 0 -i 18 -k RTR 
- -t 1.054223623 -s 2 -d 0 -p tcp -e 1560 -c 2 -a 0 -i 18 -k RTR
h -t 1.054223623 -s 2 -d 0 -p tcp -e 1560 -c 2 -a 0 -i 18 -k RTR
r -t 1.054513361 -s 0 -d -1 -p ACK -e 38 -c 2 -a 0 -i 0 -k MAC
+ -t 1.054982623 -s 2 -d -1 -p RTS -e 44 -c 2 -a 0 -i 0 -k MAC 
- -t 1.054982623 -s 2 -d -1 -p RTS -e 44 -c 2 -a 0 -i 0 -k MAC
h -t 1.054982623 -s 2 -d -1 -p RTS -e 44 -c 2 -a 0 -i 0 -k MAC
r -t 1.055335361 -s 0 -d -1 -p RTS -e 44 -c 2 -a 0 -i 0 -k MAC
+ -t 1.055345361 -s 0 -d -1 -p CTS -e 38 -c 2 -a 0 -i 0 -k MAC 
- -t 1.055345361 -s 0 -d -1 -p CTS -e 38 -c 2 -a 0 -i 0 -k MAC
h -t 1.055345361 -s 0 -d -1 -p CTS -e 38 -c 2 -a 0 -i 0 -k MAC
r -t 1.055650099 -s 2 -d -1 -p CTS -e 38 -c 2 -a 0 -i 0 -k MAC
+ -t 1.055660099 -s 2 -d 0 -p tcp -e 1618 -c 2 -a 0 -i 10 -k MAC 
- -t 1.055660099 -s 2 -d 0 -p tcp -e 1618 -c 2 -a 0 -i 10 -k MAC
h -t 1.055660099 -s 2 -d 0 -p tcp -e 1618 -c 2 -a 0 -i 10 -k MAC
r -t 1.068604837 -s 0 -d 0 -p tcp -e 1560 -c 2 -a 0 -i 10 -k MAC
+ -t 1.068614837 -s 0 -d -1 -p ACK -e 38 -c 2 -a 0 -i 0 -k MAC 
- -t 1.068614837 -s 0 -d -1 -p ACK -e 38 -c 2 -a 0 -i 0 -k MAC
h -t 1.068614837 -s 0 -d -1 -p ACK -e 38 -c 2 -a 0 -i 0 -k MAC
r -t 1.068629837 -s 0 -d 0 -p tcp -e 1560 -c 2 -a 0 -i 10 -k AGT
+ -t 1.068629837 -s 0 -d -1 -p ack -e 40 -c 2 -a 0 -i 19 -k AGT 
- -t 1.068629837 -s 0 -d -1 -p ack -e 40 -c 2 -a 0 -i 19 -k AGT
h -t 1.068629837 -s 0 -d -1 -p ack -e 40 -c 2 -a 0 -i 19 -k AGT
+ -t 1.068629837 -s 0 -d 2 -p ack -e 60 -c 2 -a 0 -i 19 -k RTR 
- -t 1.068629837 -s 0 -d 2 -p ack -e 60 -c 2 -a 0 -i 19 -k RTR
h -t 1.068629837 -s 0 -d 2 -p ack -e 60 -c 2 -a 0 -i 19 -k RTR
r -t 1.068919575 -s 2 -d -1 -p ACK -e 38 -c 2 -a 0 -i 0 -k MAC
+ -t 1.069068837 -s 0 -d -1 -p RTS -e 44 -c 2 -a 0 -i 0 -k MAC 
- -t 1.069068837 -s 0 -d -1 -p RTS -e 44 -c 2 -a 0 -i 0 -k MAC
h -t 1.069068837 -s 0 -d -1 -p RTS -e 44 -c 2 -a 0 -i 0 -k MAC
r -t 1.069421516 -s 4 -d -1 -p RTS -e 44 -c 2 -a 0 -i 0 -k MAC
+ -t 1.069431516 -s 4 -d -1 -p CTS -e 38 -c 2 -a 0 -i 0 -k MAC 
- -t 1.069431516 -s 4 -d -1 -p CTS -e 38 -c 2 -a 0 -i 0 -k MAC
h -t 1.069431516 -s 4 -d -1 -p CTS -e 38 -c 2 -a 0 -i 0 -k MAC
r -t 1.069736195 -s 0 -d -1 -p CTS -e 38 -c 2 -a 0 -i 0 -k MAC
+ -t 1.069746195 -s 0 -d 4 -p ack -e 118 -c 2 -a 0 -i 16 -k MAC 
- -t 1.069746195 -s 0 -d 4 -p ack -e 118 -c 2 -a 0 -i 16 -k MAC
h -t 1.069746195 -s 0 -d 4 -p ack -e 118 -c 2 -a 0 -i 16 -k MAC
r -t 1.070690874 -s 4 -d 4 -p ack -e 60 -c 2 -a 0 -i 16 -k MAC
+ -t 1.070700874 -s 4 -d -1 -p ACK -e 38 -c 2 -a 0 -i 0 -k MAC 
- -t 1.070700874 -s 4 -d -1 -p ACK -e 38 -c 2 -a 0 -i 0 -k MAC
h -t 1.070700874 -s 4 -d -1 -p ACK -e 38 -c 2 -a 0 -i 0 -k MAC
r -t 1.070715874 -s 4 -d 4 -p ack -e 60 -c 2 -a 0 -i 16 -k AGT
+ -t 1.070715874 -s 4 -d -1 -p tcp -e 1540 -c 2 -a 0 -i 20 -k AGT 
- -t 1.070715874 -s 4 -d -1 -p tcp -e 1540 -c 2 -a 0 -i 20 -k AGT
h -t 1.070715874 -s 4 -d -1 -p tcp -e 1540 -c 2 -a 0 -i 20 -k AGT
+ -t 1.070715874 -s 4 -d 0 -p tcp -e 1560 -c 2 -a 0 -i 20 -k RTR 
- -t 1.070715874 -s 4 -d 0 -p tcp -e 1560 -c 2 -a 0 -i 20 -k RTR
h -t 1.070715874 -s 4 -d 0 -p tcp -e 1560 -c 2 -a 0 -i 20 -k RTR
+ -t 1.070715874 -s 4 -d -1 -p tcp -e 1540 -c 2 -a 0 -i 21 -k AGT 
- -t 1.070715874 -s 4 -d -1 -p tcp -e 1540 -c 2 -a 0 -i 21 -k AGT
h -t 1.070715874 -s 4 -d -1 -p tcp -e 1540 -c 2 -a 0 -i 21 -k AGT
+ -t 1.070715874 -s 4 -d 0 -p tcp -e 1560 -c 2 -a 0 -i 21 -k RTR 
- -t 1.070715874 -s 4 -d 0 -p tcp -e 1560 -c 2 -a 0 -i 21 -k RTR
h -t 1.070715874 -s 4 -d 0 -p tcp -e 1560 -c 2 -a 0 -i 21 -k RTR
r -t 1.071005553 -s 0 -d -1 -p ACK -e 38 -c 2 -a 0 -i 0 -k MAC
+ -t 1.071235553 -s 0 -d -1 -p RTS -e 44 -c 2 -a 0 -i 0 -k MAC 
- -t 1.071235553 -s 0 -d -1 -p RTS -e 44 -c 2 -a 0 -i 0 -k MAC
h -t 1.071235553 -s 0 -d -1 -p RTS -e 44 -c 2 -a 0 -i 0 -k MAC
r -t 1.071588291 -s 2 -d -1 -p RTS -e 44 -c 2 -a 0 -i 0 -k MAC
+ -t 1.071598291 -s 2 -d -1 -p CTS -e 38 -c 2 -a 0 -i 0 -k MAC 
- -t 1.071598291 -s 2 -d -1 -p CTS -e 38 -c 2 -a 0 -i 0 -k MAC
h -t 1.071598291 -s 2 -d -1 -p CTS -e 38 -c 2 -a 0 -i 0 -k MAC
r -t 1.071903029 -s 0 -d -1 -p CTS -e 38 -c 2 -a 0 -i 0 -k MAC
+ -t 1.071913029 -s 0 -d 2 -p ack -e 118 -c 2 -a 0 -i 19 -k MAC 
- -t 1.071913029 -s 0 -d 2 -p ack -e 118 -c 2 -a 0 -i 19 -k MAC
h -t 1.071913029 -s 0 -d 2 -p ack -e 118 -c 2 -a 0 -i 19 -k MAC
r -t 1.072857767 -s 2 -d 2 -p ack -e 60 -c 2 -a 0 -i 19 -k MAC
+ -t 1.072867767 -s 2 -d -1 -p ACK -e 38 -c 2 -a 0 -i 0 -k MAC 
- -t 1.072867767 -s 2 -d -1 -p ACK -e 38 -c 2 -a 0 -i 0 -k MAC
h -t 1.072867767 -s 2 -d -1 -p ACK -e 38 -c 2 -a 0 -i 0 -k MAC
r -t 1.072882767 -s 2 -d 2 -p ack -e 60 -c 2 -a 0 -i 19 -k AGT
+ -t 1.072882767 -s 2 -d -1 -p tcp -e 1540 -c 2 -a 0 -i 22 -k AGT 
- -t 1.072882767 -s 2 -d -1 -p tcp -e 1540 -c 2 -a 0 -i 22 -k AGT
h -t 1.072882767 -s 2 -d -1 -p tcp -e 1540 -c 2 -a 0 -i 22 -k AGT
+ -t 1.072882767 -s 2 -d 0 -p tcp -e 1560 -c 2 -a 0 -i 22 -k RTR 
- -t 1.072882767 -s 2 -d 0 -p tcp -e 1560 -c 2 -a 0 -i 22 -k RTR
h -t 1.072882767 -s 2 -d 0 -p tcp -e 1560 -c 2 -a 0 -i 22 -k RTR
+ -t 1.072882767 -s 2 -d -1 -p tcp -e 1540 -c 2 -a 0 -i 23 -k AGT 
- -t 1.072882767 -s 2 -d -1 -p tcp -e 1540 -c 2 -a 0 -i 23 -k AGT
h -t 1.072882767 -s 2 -d -1 -p tcp -e 1540 -c 2 -a 0 -i 23 -k AGT
+ -t 1.072882767 -s 2 -d 0 -p tcp -e 1560 -c 2 -a 0 -i 23 -k RTR 
- -t 1.072882767 -s 2 -d 0 -p tcp -e 1560 -c 2 -a 0 -i 23 -k RTR
h -t 1.072882767 -s 2 -d 0 -p tcp -e 1560 -c 2 -a 0 -i 23 -k RTR
r -t 1.073172505 -s 0 -d -1 -p ACK -e 38 -c 2 -a 0 -i 0 -k MAC
+ -t 1.073421767 -s 2 -d -1 -p RTS -e 44 -c 2 -a 0 -i 0 -k MAC 
- -t 1.073421767 -s 2 -d -1 -p RTS -e 44 -c 2 -a 0 -i 0 -k MAC
h -t 1.073421767 -s 2 -d -1 -p RTS -e 44 -c 2 -a 0 -i 0 -k MAC
r -t 1.073774505 -s 0 -d -1 -p RTS -e 44 -c 2 -a 0 -i 0 -k MAC
+ -t 1.073784505 -s 0 -d -1 -p CTS -e 38 -c 2 -a 0 -i 0 -k MAC 
- -t 1.073784505 -s 0 -d -1 -p CTS -e 38 -c 2 -a 0 -i 0 -k MAC
h -t 1.073784505 -s 0 -d -1 -p CTS -e 38 -c 2 -a 0 -i 0 -k MAC
r -t 1.074089243 -s 2 -d -1 -p CTS -e 38 -c 2 -a 0 -i 0 -k MAC
+ -t 1.074099243 -s 2 -d 0 -p tcp -e 1618 -c 2 -a 0 -i 17 -k MAC 
- -t 1.074099243 -s 2 -d 0 -p tcp -e 1618 -c 2 -a 0 -i 17 -k MAC
h -t 1.074099243 -s 2 -d 0 -p tcp -e 1618 -c 2 -a 0 -i 17 -k MAC
r -t 1.087043981 -s 0 -d 0 -p tcp -e 1560 -c 2 -a 0 -i 17 -k MAC
+ -t 1.087053981 -s 0 -d -1 -p ACK -e 38 -c 2 -a 0 -i 0 -k MAC 
- -t 1.087053981 -s 0 -d -1 -p ACK -e 38 -c 2 -a 0 -i 0 -k MAC
h -t 1.087053981 -s 0 -d -1 -p ACK -e 38 -c 2 -a 0 -i 0 -k MAC
r -t 1.087068981 -s 0 -d 0 -p tcp -e 1560 -c 2 -a 0 -i 17 -k AGT
+ -t 1.087068981 -s 0 -d -1 -p ack -e 40 -c 2 -a 0 -i 24 -k AGT 
- -t 1.087068981 -s 0 -d -1 -p ack -e 40 -c 2 -a 0 -i 24 -k AGT
h -t 1.087068981 -s 0 -d -1 -p ack -e 40 -c 2 -a 0 -i 24 -k AGT
+ -t 1.087068981 -s 0 -d 2 -p ack -e 60 -c 2 -a 0 -i 24 -k RTR 
- -t 1.087068981 -s 0 -d 2 -p ack -e 60 -c 2 -a 0 -i 24 -k RTR
h -t 1.087068981 -s 0 -d 2 -p ack -e 60 -c 2 -a 0 -i 24 -k RTR
r -t 1.087358719 -s 2 -d -1 -p ACK -e 38 -c 2 -a 0 -i 0 -k MAC
+ -t 1.087478658 -s 4 -d -1 -p RTS -e 44 -c 2 -a 0 -i 0 -k MAC 
- -t 1.087478658 -s 4 -d -1 -p RTS -e 44 -c 2 -a 0 -i 0 -k MAC
h -t 1.087478658 -s 4 -d -1 -p RTS -e 44 -c 2 -a 0 -i 0 -k MAC
r -t 1.087831337 -s 0 -d -1 -p RTS -e 44 -c 2 -a 0 -i 0 -k MAC
+ -t 1.087841337 -s 0 -d -1 -p CTS -e 38 -c 2 -a 0 -i 0 -k MAC 